
  ___ ___ ___ _ _ _  
 |   |   |_  | | | | 
 | | | | | . | | | | 
 |__ |  _|___|_____|  20.1.0
 |___|_|             

User:   romanov_av@node5
Date:   Tue Oct 24 14:47:19 2023
Arch:   x86_64
Pid:    1410602
Python: 3.8.2
gpaw:   /home/romanov_av/bin/gcc/4.8.5/openmpi/4.0.3/gpaw/20.1.0/lib/python3.8/site-packages/gpaw-20.1.0-py3.8-linux-x86_64.egg/gpaw
_gpaw:  /home/romanov_av/bin/gcc/4.8.5/openmpi/4.0.3/gpaw/20.1.0/lib/python3.8/site-packages/gpaw-20.1.0-py3.8-linux-x86_64.egg/
        _gpaw.cpython-38-x86_64-linux-gnu.so
ase:    /beegfs/home/romanov_av/bin/gcc/4.8.5/openmpi/4.0.3/ase/3.19.0/lib/python3.8/site-packages/ase-3.19.0-py3.8.egg/ase (version 3.19.0)
numpy:  /beegfs/home/romanov_av/bin/gcc/4.8.5/openmpi/4.0.3/numpy/1.18.1/lib/python3.8/site-packages/numpy-1.18.1-py3.8-linux-x86_64.egg/numpy (version 1.18.1)
scipy:  /beegfs/home/romanov_av/bin/gcc/4.8.5/openmpi/4.0.3/scipy/1.4.1/lib/python3.8/site-packages/scipy-1.4.1-py3.8-linux-x86_64.egg/scipy (version 1.4.1)
libxc:  4.3.4
units:  Angstrom and eV
cores: 12
OMP_NUM_THREADS: 1

System changes: positions, numbers, cell, pbc, initial_charges, initial_magmoms 

Initialize ...

Ag-setup:
  name: Silver
  id: f953609fccf8aad4cc715c8d48b1fa33
  Z: 47
  valence: 11
  core: 36
  charge: 0.0
  file: /home/romanov_av/bin/gcc/4.8.5/openmpi/4.0.3/gpaw-setups/0.9.20000/Ag.11.PBE.gz
  compensation charges: gauss, rc=0.41, lmax=2
  cutoffs: 2.31(filt), 2.78(core),
  valence states:
                energy  radius
    5s(1.00)    -4.401   1.296
    5p(0.00)    -0.738   1.296
    4d(10.00)    -7.446   1.296
    *s          22.811   1.296
    *p          26.473   1.296
    *d          19.766   1.296

  LCAO basis set for Ag:
    Name: 11.dzp
    File: /home/romanov_av/bin/gcc/4.8.5/openmpi/4.0.3/gpaw-setups/0.9.20000/Ag.11.dzp.basis.gz
    Number of radial functions: 5
    Number of spherical harmonics: 15
      l=0, rc=9.3125 Bohr: 5s-sz confined orbital
      l=2, rc=5.5000 Bohr: 4d-sz confined orbital
      l=0, rc=5.4844 Bohr: 5s-dz split-valence wave
      l=2, rc=3.3594 Bohr: 4d-dz split-valence wave
      l=1, rc=9.3125 Bohr: p-type Gaussian polarization

Reference energy: -2891956.527156

Spin-paired calculation

Occupation numbers:
  Fermi-Dirac: width=0.1000 eV

Convergence criteria:
  Maximum total energy change: 0.0005 eV / electron
  Maximum integral of absolute density change: 1e-05 electrons
  Maximum integral of absolute eigenstate change: 4e-08 eV^2
  Maximum number of iterations: 333

Symmetries present (total): 1

  ( 1  0  0)
  ( 0  1  0)
  ( 0  0  1)

9 k-points: 3 x 3 x 1 Monkhorst-Pack grid
5 k-points in the irreducible part of the Brillouin zone
       k-points in crystal coordinates                weights
   0:     0.00000000    0.00000000    0.00000000          1/9
   1:     0.00000000    0.33333333    0.00000000          2/9
   2:     0.33333333   -0.33333333    0.00000000          2/9
   3:     0.33333333    0.00000000    0.00000000          2/9
   4:     0.33333333    0.33333333    0.00000000          2/9

Wave functions: LCAO
  Diagonalizer: BLACS / ScaLAPACK, 4 x 3 grid with 32 x 32 blocksize
  Atomic Correction: sparse using scipy
  Datatype: complex
 

Eigensolver
   LCAO using direct dense diagonalizer 

Densities:
  Coarse grid: 32*32*192 grid
  Fine grid: 64*64*384 grid
  Total Charge: 0.000000 

Density mixing:
  Method: separate
  Backend: pulay
  Linear mixing parameter: 0.05
  Mixing with 5 old densities
  Damping of long wave oscillations: 50 

Hamiltonian:
  XC and Coulomb potentials evaluated on a 64*64*384 grid
  Using the PBE Exchange-Correlation functional
  Interpolation: tri-quintic (5. degree polynomial)
  Poisson solver: FastPoissonSolver using
    8*3+1=25 point O(h^6) finite-difference Laplacian stencil;
    FFT axes: [0, 1];
    FST axes: [2].

Dipole correction along z-axis 

XC parameters: PBE with 2 nearest neighbor stencil

Memory estimate:
  Process memory now: 166.68 MiB
  Calculator: 29.13 MiB
    Density: 15.66 MiB
      Arrays: 3.20 MiB
      Localized functions: 11.26 MiB
      Mixer: 1.21 MiB
    Hamiltonian: 2.96 MiB
      Arrays: 2.09 MiB
      XC: 0.00 MiB
      Poisson: 0.00 MiB
      vbar: 0.87 MiB
    Wavefunctions: 10.51 MiB
      C [qnM]: 3.11 MiB
      S, T [2 x qmm]: 1.58 MiB
      P [aqMi]: 0.04 MiB
      BasisFunctions: 5.77 MiB
      Eigensolver: 0.00 MiB

Total number of cores used: 12
Domain decomposition: 2 x 1 x 6

Number of atoms: 20
Number of atomic orbitals: 300
Number of bands in calculation: 136
Number of valence electrons: 220
Bands to converge: occupied

... initialized

Initializing position-dependent things.

Density initialized from atomic densities
                                 
                                 
                                 
                                 
                                 
            Ag     Ag            
       Ag     Ag                 
             Ag     Ag           
        Ag     Ag                
                                 
                Ag     Ag        
                                 
           Ag     Ag             
                                 
            Ag     Ag            
       Ag     Ag                 
             Ag     Ag           
        Ag     Ag                
                                 
                                 
                                 
                                 
                                 

Positions:
   0 Ag     0.000000    1.698721   15.000000    ( 0.0000,  0.0000,  0.0000)
   1 Ag     2.942271    1.698721   15.000000    ( 0.0000,  0.0000,  0.0000)
   2 Ag     1.471136    4.246803   15.000000    ( 0.0000,  0.0000,  0.0000)
   3 Ag     4.413407    4.246803   15.000000    ( 0.0000,  0.0000,  0.0000)
   4 Ag     0.000000    0.000000   17.402354    ( 0.0000,  0.0000,  0.0000)
   5 Ag     2.942271    0.000000   17.402354    ( 0.0000,  0.0000,  0.0000)
   6 Ag     1.471136    2.548082   17.402354    ( 0.0000,  0.0000,  0.0000)
   7 Ag     4.413407    2.548082   17.402354    ( 0.0000,  0.0000,  0.0000)
   8 Ag     1.471136    0.849361   19.804709    ( 0.0000,  0.0000,  0.0000)
   9 Ag     4.413407    0.849361   19.804709    ( 0.0000,  0.0000,  0.0000)
  10 Ag     2.942271    3.397442   19.804709    ( 0.0000,  0.0000,  0.0000)
  11 Ag     5.884543    3.397442   19.804709    ( 0.0000,  0.0000,  0.0000)
  12 Ag     0.000000    1.698721   22.207063    ( 0.0000,  0.0000,  0.0000)
  13 Ag     2.942271    1.698721   22.207063    ( 0.0000,  0.0000,  0.0000)
  14 Ag     1.471136    4.246803   22.207063    ( 0.0000,  0.0000,  0.0000)
  15 Ag     4.413407    4.246803   22.207063    ( 0.0000,  0.0000,  0.0000)
  16 Ag     0.000000    0.000000   24.609418    ( 0.0000,  0.0000,  0.0000)
  17 Ag     2.942271    0.000000   24.609418    ( 0.0000,  0.0000,  0.0000)
  18 Ag     1.471136    2.548082   24.609418    ( 0.0000,  0.0000,  0.0000)
  19 Ag     4.413407    2.548082   24.609418    ( 0.0000,  0.0000,  0.0000)

Unit cell:
           periodic     x           y           z      points  spacing
  1. axis:    yes    5.884543    0.000000    0.000000    32     0.1593
  2. axis:    yes    2.942271    5.096163    0.000000    32     0.1593
  3. axis:    no     0.000000    0.000000   39.609418   192     0.2063

  Lengths:   5.884543   5.884543  39.609418
  Angles:   90.000000  90.000000  60.000000

Effective grid spacing dv^(1/3) = 0.1821

                     log10-error:    total        iterations:
           time      wfs    density  energy       fermi  poisson
iter:   1  14:47:22                 -49.452621    4      1      
iter:   2  14:47:26         -1.36   -47.994018    31     1      
iter:   3  14:47:30         -1.41   -43.108709    34     1      
iter:   4  14:47:34         -1.97   -43.094517    4      1      
iter:   5  14:47:39         -2.12   -43.072410    34     1      
iter:   6  14:47:43         -2.16   -42.958037    5      1      
iter:   7  14:47:47         -2.26   -42.916595    5      1      
iter:   8  14:47:51         -2.48   -42.908371    3      1      
iter:   9  14:47:56         -2.60   -42.893531    4      1      
iter:  10  14:48:00         -2.81   -42.883932    3      1      
iter:  11  14:48:04         -3.16   -42.882732    3      1      
iter:  12  14:48:08         -3.47   -42.882719    3      1      
iter:  13  14:48:13         -3.99   -42.882809    3      1      
iter:  14  14:48:17         -4.12   -42.882730    2      1      
iter:  15  14:48:21         -4.27   -42.882688    2      1      
iter:  16  14:48:25         -4.35   -42.882721    2      1      
iter:  17  14:48:30         -4.37   -42.882741    2      1      
iter:  18  14:48:34         -4.52   -42.882759    2      1      
iter:  19  14:48:38         -4.86   -42.882743    2      1      
iter:  20  14:48:42         -5.23   -42.882733    2      1      

Converged after 20 iterations.

Dipole moment: (6.479979, 3.741218, 0.000001) |e|*Ang

Energy contributions relative to reference atoms: (reference = -2891956.527156)

Kinetic:       -138.085736
Potential:     +123.839015
External:        +0.000000
XC:             -29.665139
Entropy (-ST):   -0.306910
Local:           +1.182582
--------------------------
Free energy:    -43.036188
Extrapolated:   -42.882733

Dipole-layer corrected work functions: 3.946930, 3.946921 eV

Fermi level: -3.94693

Showing only first 2 kpts
 Kpt  Band  Eigenvalues  Occupancy
  0   108     -2.90265    0.00001
  0   109     -2.90265    0.00001
  0   110     -2.90263    0.00001
  0   111     -1.90373    0.00000

  1   108     -4.46744    0.44202
  1   109     -3.93477    0.20874
  1   110     -3.93474    0.20870
  1   111     -3.76561    0.06233


No gap

Forces in eV/Ang:
  0 Ag   -0.00004   -0.00003    0.00942
  1 Ag   -0.00004   -0.00003    0.00942
  2 Ag   -0.00004   -0.00003    0.00942
  3 Ag   -0.00004   -0.00003    0.00942
  4 Ag    0.00000    0.00000    0.13474
  5 Ag    0.00000    0.00000    0.13474
  6 Ag    0.00000    0.00000    0.13474
  7 Ag    0.00000    0.00000    0.13474
  8 Ag    0.00001    0.00001    0.00044
  9 Ag    0.00001    0.00001    0.00044
 10 Ag    0.00001    0.00001    0.00044
 11 Ag    0.00001    0.00001    0.00044
 12 Ag   -0.00001   -0.00001   -0.12773
 13 Ag   -0.00001   -0.00001   -0.12773
 14 Ag   -0.00001   -0.00001   -0.12773
 15 Ag   -0.00001   -0.00001   -0.12773
 16 Ag    0.00003    0.00002   -0.00494
 17 Ag    0.00003    0.00002   -0.00494
 18 Ag    0.00003    0.00002   -0.00494
 19 Ag    0.00003    0.00002   -0.00494

System changes: positions 

Initializing position-dependent things.

Density initialized from wave functions
                                 
                                 
                                 
                                 
                                 
            Ag     Ag            
       Ag     Ag                 
             Ag     Ag           
        Ag     Ag                
                                 
                Ag     Ag        
                                 
           Ag     Ag             
                                 
            Ag     Ag            
       Ag     Ag                 
             Ag     Ag           
        Ag     Ag                
                                 
                                 
                                 
                                 
                                 

Positions:
   0 Ag    -0.000000    1.698721   15.000000    ( 0.0000,  0.0000,  0.0000)
   1 Ag     2.942271    1.698721   15.000000    ( 0.0000,  0.0000,  0.0000)
   2 Ag     1.471136    4.246803   15.000000    ( 0.0000,  0.0000,  0.0000)
   3 Ag     4.413407    4.246803   15.000000    ( 0.0000,  0.0000,  0.0000)
   4 Ag     0.000000    0.000000   17.402356    ( 0.0000,  0.0000,  0.0000)
   5 Ag     2.942271    0.000000   17.402356    ( 0.0000,  0.0000,  0.0000)
   6 Ag     1.471136    2.548082   17.402356    ( 0.0000,  0.0000,  0.0000)
   7 Ag     4.413407    2.548082   17.402356    ( 0.0000,  0.0000,  0.0000)
   8 Ag     1.471136    0.849361   19.804709    ( 0.0000,  0.0000,  0.0000)
   9 Ag     4.413407    0.849361   19.804709    ( 0.0000,  0.0000,  0.0000)
  10 Ag     2.942271    3.397442   19.804709    ( 0.0000,  0.0000,  0.0000)
  11 Ag     5.884543    3.397442   19.804709    ( 0.0000,  0.0000,  0.0000)
  12 Ag    -0.000000    1.698721   22.207062    ( 0.0000,  0.0000,  0.0000)
  13 Ag     2.942271    1.698721   22.207062    ( 0.0000,  0.0000,  0.0000)
  14 Ag     1.471136    4.246803   22.207062    ( 0.0000,  0.0000,  0.0000)
  15 Ag     4.413407    4.246803   22.207062    ( 0.0000,  0.0000,  0.0000)
  16 Ag     0.000000    0.000000   24.609418    ( 0.0000,  0.0000,  0.0000)
  17 Ag     2.942271    0.000000   24.609418    ( 0.0000,  0.0000,  0.0000)
  18 Ag     1.471136    2.548082   24.609418    ( 0.0000,  0.0000,  0.0000)
  19 Ag     4.413407    2.548082   24.609418    ( 0.0000,  0.0000,  0.0000)

Unit cell:
           periodic     x           y           z      points  spacing
  1. axis:    yes    5.884543    0.000000    0.000000    32     0.1593
  2. axis:    yes    2.942271    5.096163    0.000000    32     0.1593
  3. axis:    no     0.000000    0.000000   39.609418   192     0.2063

  Lengths:   5.884543   5.884543  39.609418
  Angles:   90.000000  90.000000  60.000000

Effective grid spacing dv^(1/3) = 0.1821

                     log10-error:    total        iterations:
           time      wfs    density  energy       fermi  poisson
iter:   1  14:49:10                 -42.882710    2      1      
iter:   2  14:49:14         -4.73   -42.882723    2      1      
iter:   3  14:49:18         -4.51   -42.882719    2      1      
iter:   4  14:49:23         -5.37   -42.882733    2      1      

Converged after 4 iterations.

Dipole moment: (6.479824, 3.741128, -0.000007) |e|*Ang

Energy contributions relative to reference atoms: (reference = -2891956.527156)

Kinetic:       -138.316885
Potential:     +124.056787
External:        +0.000000
XC:             -29.652766
Entropy (-ST):   -0.306913
Local:           +1.183589
--------------------------
Free energy:    -43.036189
Extrapolated:   -42.882733

Dipole-layer corrected work functions: 3.947000, 3.947040 eV

Fermi level: -3.94702

Showing only first 2 kpts
 Kpt  Band  Eigenvalues  Occupancy
  0   108     -2.90290    0.00001
  0   109     -2.90290    0.00001
  0   110     -2.90288    0.00001
  0   111     -1.90377    0.00000

  1   108     -4.46761    0.44202
  1   109     -3.93485    0.20872
  1   110     -3.93483    0.20869
  1   111     -3.76573    0.06235


No gap

Forces in eV/Ang:
  0 Ag   -0.00004   -0.00003    0.00896
  1 Ag   -0.00004   -0.00003    0.00896
  2 Ag   -0.00004   -0.00003    0.00896
  3 Ag   -0.00004   -0.00003    0.00896
  4 Ag    0.00000    0.00000    0.13498
  5 Ag    0.00000    0.00000    0.13498
  6 Ag    0.00000    0.00000    0.13498
  7 Ag    0.00000    0.00000    0.13498
  8 Ag    0.00001    0.00001    0.00043
  9 Ag    0.00001    0.00001    0.00043
 10 Ag    0.00001    0.00001    0.00043
 11 Ag    0.00001    0.00001    0.00043
 12 Ag   -0.00001   -0.00001   -0.12791
 13 Ag   -0.00001   -0.00001   -0.12791
 14 Ag   -0.00001   -0.00001   -0.12791
 15 Ag   -0.00001   -0.00001   -0.12791
 16 Ag    0.00003    0.00002   -0.00441
 17 Ag    0.00003    0.00002   -0.00441
 18 Ag    0.00003    0.00002   -0.00441
 19 Ag    0.00003    0.00002   -0.00441

System changes: positions 

Initializing position-dependent things.

Density initialized from wave functions
                                 
                                 
                                 
                                 
                                 
            Ag     Ag            
       Ag     Ag                 
             Ag     Ag           
        Ag     Ag                
                                 
                Ag     Ag        
                                 
           Ag     Ag             
                                 
            Ag     Ag            
       Ag     Ag                 
             Ag     Ag           
        Ag     Ag                
                                 
                                 
                                 
                                 
                                 

Positions:
   0 Ag    -0.000000    1.698721   15.000000    ( 0.0000,  0.0000,  0.0000)
   1 Ag     2.942271    1.698721   15.000000    ( 0.0000,  0.0000,  0.0000)
   2 Ag     1.471136    4.246803   15.000000    ( 0.0000,  0.0000,  0.0000)
   3 Ag     4.413407    4.246803   15.000000    ( 0.0000,  0.0000,  0.0000)
   4 Ag     0.000000    0.000000   17.402361    ( 0.0000,  0.0000,  0.0000)
   5 Ag     2.942271    0.000000   17.402361    ( 0.0000,  0.0000,  0.0000)
   6 Ag     1.471136    2.548082   17.402361    ( 0.0000,  0.0000,  0.0000)
   7 Ag     4.413407    2.548082   17.402361    ( 0.0000,  0.0000,  0.0000)
   8 Ag     1.471136    0.849361   19.804709    ( 0.0000,  0.0000,  0.0000)
   9 Ag     4.413407    0.849361   19.804709    ( 0.0000,  0.0000,  0.0000)
  10 Ag     2.942271    3.397442   19.804709    ( 0.0000,  0.0000,  0.0000)
  11 Ag     5.884543    3.397442   19.804709    ( 0.0000,  0.0000,  0.0000)
  12 Ag    -0.000000    1.698721   22.207058    ( 0.0000,  0.0000,  0.0000)
  13 Ag     2.942271    1.698721   22.207058    ( 0.0000,  0.0000,  0.0000)
  14 Ag     1.471136    4.246803   22.207058    ( 0.0000,  0.0000,  0.0000)
  15 Ag     4.413407    4.246803   22.207058    ( 0.0000,  0.0000,  0.0000)
  16 Ag     0.000000    0.000000   24.609418    ( 0.0000,  0.0000,  0.0000)
  17 Ag     2.942271    0.000000   24.609418    ( 0.0000,  0.0000,  0.0000)
  18 Ag     1.471136    2.548082   24.609418    ( 0.0000,  0.0000,  0.0000)
  19 Ag     4.413407    2.548082   24.542542    ( 0.0000,  0.0000,  0.0000)

Unit cell:
           periodic     x           y           z      points  spacing
  1. axis:    yes    5.884543    0.000000    0.000000    32     0.1593
  2. axis:    yes    2.942271    5.096163    0.000000    32     0.1593
  3. axis:    no     0.000000    0.000000   39.609418   192     0.2063

  Lengths:   5.884543   5.884543  39.609418
  Angles:   90.000000  90.000000  60.000000

Effective grid spacing dv^(1/3) = 0.1821

                     log10-error:    total        iterations:
           time      wfs    density  energy       fermi  poisson
iter:   1  14:49:51                 -42.888409    3      1      
iter:   2  14:49:55         -2.96   -42.899302    3      1      
iter:   3  14:49:59         -2.73   -42.879756    3      1      
iter:   4  14:50:03         -3.66   -42.878711    3      1      
iter:   5  14:50:07         -3.75   -42.879014    3      1      
iter:   6  14:50:11         -3.84   -42.878989    3      1      
iter:   7  14:50:15         -4.07   -42.878812    3      1      
iter:   8  14:50:19         -4.39   -42.878775    2      1      
iter:   9  14:50:24         -4.43   -42.878755    2      1      
iter:  10  14:50:28         -4.34   -42.878734    2      1      
iter:  11  14:50:32         -4.88   -42.878739    2      1      
iter:  12  14:50:36         -4.96   -42.878740    2      1      
iter:  13  14:50:40         -5.04   -42.878728    2      1      

Converged after 13 iterations.

Dipole moment: (6.479970, 3.741213, 0.000479) |e|*Ang

Energy contributions relative to reference atoms: (reference = -2891956.527156)

Kinetic:       -137.178316
Potential:     +123.104832
External:        +0.000000
XC:             -29.840913
Entropy (-ST):   -0.303070
Local:           +1.187204
--------------------------
Free energy:    -43.030263
Extrapolated:   -42.878728

Dipole-layer corrected work functions: 3.943717, 3.940826 eV

Fermi level: -3.94227

Showing only first 2 kpts
 Kpt  Band  Eigenvalues  Occupancy
  0   108     -2.90943    0.00001
  0   109     -2.89861    0.00001
  0   110     -2.89860    0.00001
  0   111     -1.90669    0.00000

  1   108     -4.46499    0.44207
  1   109     -3.93476    0.21389
  1   110     -3.93325    0.21220
  1   111     -3.75371    0.05855


No gap

Forces in eV/Ang:
  0 Ag   -0.00025    0.00009    0.01097
  1 Ag    0.00016    0.00009    0.01097
  2 Ag   -0.00004   -0.00003    0.01195
  3 Ag   -0.00004   -0.00027    0.01097
  4 Ag    0.00101    0.00058    0.13192
  5 Ag   -0.00101    0.00058    0.13192
  6 Ag   -0.00000   -0.00116    0.13192
  7 Ag    0.00000    0.00000    0.13561
  8 Ag    0.00001    0.00001    0.00663
  9 Ag    0.00001   -0.00358   -0.00171
 10 Ag   -0.00309    0.00180   -0.00171
 11 Ag    0.00312    0.00180   -0.00171
 12 Ag    0.04215   -0.02436   -0.19272
 13 Ag   -0.04218   -0.02435   -0.19273
 14 Ag   -0.00001   -0.00001   -0.12518
 15 Ag   -0.00002    0.04869   -0.19272
 16 Ag   -0.00138   -0.00079   -0.00774
 17 Ag    0.00144   -0.00079   -0.00771
 18 Ag    0.00003    0.00164   -0.00771
 19 Ag    0.00004    0.00002    0.19351

System changes: positions 

Initializing position-dependent things.

Density initialized from wave functions
                                 
                                 
                                 
                                 
                                 
            Ag     Ag            
       Ag     Ag                 
             Ag     Ag           
        Ag     Ag                
                                 
                Ag     Ag        
                                 
           Ag     Ag             
                                 
            Ag     Ag            
       Ag     Ag                 
             Ag     Ag           
        Ag     Ag                
                                 
                                 
                                 
                                 
                                 

Positions:
   0 Ag    -0.000000    1.698721   15.000001    ( 0.0000,  0.0000,  0.0000)
   1 Ag     2.942271    1.698721   15.000001    ( 0.0000,  0.0000,  0.0000)
   2 Ag     1.471136    4.246803   15.000001    ( 0.0000,  0.0000,  0.0000)
   3 Ag     4.413407    4.246803   15.000001    ( 0.0000,  0.0000,  0.0000)
   4 Ag     0.000000    0.000000   17.402368    ( 0.0000,  0.0000,  0.0000)
   5 Ag     2.942271    0.000000   17.402368    ( 0.0000,  0.0000,  0.0000)
   6 Ag     1.471136    2.548082   17.402368    ( 0.0000,  0.0000,  0.0000)
   7 Ag     4.413407    2.548082   17.402368    ( 0.0000,  0.0000,  0.0000)
   8 Ag     1.471136    0.849361   19.804709    ( 0.0000,  0.0000,  0.0000)
   9 Ag     4.413407    0.849360   19.804709    ( 0.0000,  0.0000,  0.0000)
  10 Ag     2.942271    3.397442   19.804709    ( 0.0000,  0.0000,  0.0000)
  11 Ag     5.884543    3.397442   19.804709    ( 0.0000,  0.0000,  0.0000)
  12 Ag     0.000001    1.698721   22.207049    ( 0.0000,  0.0000,  0.0000)
  13 Ag     2.942270    1.698721   22.207049    ( 0.0000,  0.0000,  0.0000)
  14 Ag     1.471136    4.246803   22.207051    ( 0.0000,  0.0000,  0.0000)
  15 Ag     4.413407    4.246804   22.207049    ( 0.0000,  0.0000,  0.0000)
  16 Ag    -0.000000   -0.000000   24.609417    ( 0.0000,  0.0000,  0.0000)
  17 Ag     2.942271   -0.000000   24.609417    ( 0.0000,  0.0000,  0.0000)
  18 Ag     1.471136    2.548082   24.609417    ( 0.0000,  0.0000,  0.0000)
  19 Ag     4.413407    2.548082   24.475670    ( 0.0000,  0.0000,  0.0000)

Unit cell:
           periodic     x           y           z      points  spacing
  1. axis:    yes    5.884543    0.000000    0.000000    32     0.1593
  2. axis:    yes    2.942271    5.096163    0.000000    32     0.1593
  3. axis:    no     0.000000    0.000000   39.609418   192     0.2063

  Lengths:   5.884543   5.884543  39.609418
  Angles:   90.000000  90.000000  60.000000

Effective grid spacing dv^(1/3) = 0.1821

                     log10-error:    total        iterations:
           time      wfs    density  energy       fermi  poisson
iter:   1  14:51:08                 -42.867791    3      1      
iter:   2  14:51:12         -3.01   -42.876099    3      1      
iter:   3  14:51:16         -2.79   -42.860978    2      1      
iter:   4  14:51:21         -3.67   -42.860120    3      1      
iter:   5  14:51:25         -3.76   -42.860709    3      1      
iter:   6  14:51:29         -3.75   -42.860376    3      1      
iter:   7  14:51:33         -4.12   -42.860184    3      1      
iter:   8  14:51:37         -4.43   -42.860152    2      1      
iter:   9  14:51:41         -4.50   -42.860142    2      1      
iter:  10  14:51:45         -4.46   -42.860130    2      1      
iter:  11  14:51:50         -4.90   -42.860146    2      1      
iter:  12  14:51:54         -5.01   -42.860149    2      1      

Converged after 12 iterations.

Dipole moment: (6.479962, 3.741208, 0.000950) |e|*Ang

Energy contributions relative to reference atoms: (reference = -2891956.527156)

Kinetic:       -135.762471
Potential:     +121.912433
External:        +0.000000
XC:             -30.052127
Entropy (-ST):   -0.298724
Local:           +1.191379
--------------------------
Free energy:    -43.009511
Extrapolated:   -42.860149

Dipole-layer corrected work functions: 3.941946, 3.936213 eV

Fermi level: -3.93908

Showing only first 2 kpts
 Kpt  Band  Eigenvalues  Occupancy
  0   108     -2.91190    0.00001
  0   109     -2.89568    0.00001
  0   110     -2.89567    0.00001
  0   111     -1.90999    0.00000

  1   108     -4.46432    0.44213
  1   109     -3.93552    0.21827
  1   110     -3.93448    0.21711
  1   111     -3.74212    0.05441


No gap

Forces in eV/Ang:
  0 Ag   -0.00013    0.00003    0.01114
  1 Ag    0.00005    0.00003    0.01114
  2 Ag   -0.00004   -0.00003    0.01267
  3 Ag   -0.00004   -0.00013    0.01114
  4 Ag    0.00201    0.00116    0.12818
  5 Ag   -0.00201    0.00116    0.12818
  6 Ag   -0.00000   -0.00232    0.12818
  7 Ag    0.00000    0.00000    0.13525
  8 Ag    0.00002    0.00001    0.01294
  9 Ag    0.00001   -0.00712   -0.00261
 10 Ag   -0.00616    0.00357   -0.00261
 11 Ag    0.00619    0.00357   -0.00261
 12 Ag    0.09915   -0.05728   -0.27511
 13 Ag   -0.09917   -0.05726   -0.27512
 14 Ag   -0.00001   -0.00001   -0.12139
 15 Ag   -0.00003    0.11451   -0.27511
 16 Ag   -0.00260   -0.00150   -0.00950
 17 Ag    0.00266   -0.00150   -0.00943
 18 Ag    0.00003    0.00306   -0.00943
 19 Ag    0.00004    0.00002    0.44011

System changes: positions 

Initializing position-dependent things.

Density initialized from wave functions
                                 
                                 
                                 
                                 
                                 
            Ag     Ag            
       Ag     Ag                 
             Ag     Ag           
        Ag     Ag                
                                 
                Ag     Ag        
                                 
           Ag     Ag             
                                 
            Ag     Ag            
       Ag     Ag                 
             Ag     Ag           
        Ag     Ag                
                                 
                                 
                                 
                                 
                                 

Positions:
   0 Ag    -0.000000    1.698721   15.000002    ( 0.0000,  0.0000,  0.0000)
   1 Ag     2.942271    1.698721   15.000002    ( 0.0000,  0.0000,  0.0000)
   2 Ag     1.471136    4.246803   15.000002    ( 0.0000,  0.0000,  0.0000)
   3 Ag     4.413407    4.246803   15.000002    ( 0.0000,  0.0000,  0.0000)
   4 Ag     0.000000    0.000000   17.402378    ( 0.0000,  0.0000,  0.0000)
   5 Ag     2.942271    0.000000   17.402378    ( 0.0000,  0.0000,  0.0000)
   6 Ag     1.471136    2.548082   17.402378    ( 0.0000,  0.0000,  0.0000)
   7 Ag     4.413407    2.548082   17.402379    ( 0.0000,  0.0000,  0.0000)
   8 Ag     1.471136    0.849361   19.804710    ( 0.0000,  0.0000,  0.0000)
   9 Ag     4.413407    0.849360   19.804709    ( 0.0000,  0.0000,  0.0000)
  10 Ag     2.942271    3.397442   19.804709    ( 0.0000,  0.0000,  0.0000)
  11 Ag     5.884543    3.397442   19.804709    ( 0.0000,  0.0000,  0.0000)
  12 Ag     0.000004    1.698719   22.207034    ( 0.0000,  0.0000,  0.0000)
  13 Ag     2.942267    1.698719   22.207034    ( 0.0000,  0.0000,  0.0000)
  14 Ag     1.471136    4.246803   22.207041    ( 0.0000,  0.0000,  0.0000)
  15 Ag     4.413407    4.246808   22.207034    ( 0.0000,  0.0000,  0.0000)
  16 Ag    -0.000000   -0.000000   24.609417    ( 0.0000,  0.0000,  0.0000)
  17 Ag     2.942271   -0.000000   24.609417    ( 0.0000,  0.0000,  0.0000)
  18 Ag     1.471136    2.548082   24.609417    ( 0.0000,  0.0000,  0.0000)
  19 Ag     4.413407    2.548082   24.408809    ( 0.0000,  0.0000,  0.0000)

Unit cell:
           periodic     x           y           z      points  spacing
  1. axis:    yes    5.884543    0.000000    0.000000    32     0.1593
  2. axis:    yes    2.942271    5.096163    0.000000    32     0.1593
  3. axis:    no     0.000000    0.000000   39.609418   192     0.2063

  Lengths:   5.884543   5.884543  39.609418
  Angles:   90.000000  90.000000  60.000000

Effective grid spacing dv^(1/3) = 0.1821

                     log10-error:    total        iterations:
           time      wfs    density  energy       fermi  poisson
iter:   1  14:52:22                 -42.827567    2      1      
iter:   2  14:52:26         -3.13   -42.832237    3      1      
iter:   3  14:52:30         -2.90   -42.823557    2      1      
iter:   4  14:52:35         -3.69   -42.822883    3      1      
iter:   5  14:52:39         -3.79   -42.823653    3      1      
iter:   6  14:52:43         -3.72   -42.823216    3      1      
iter:   7  14:52:47         -4.08   -42.822942    3      1      
iter:   8  14:52:51         -4.45   -42.822929    2      1      
iter:   9  14:52:56         -4.53   -42.822930    2      1      
iter:  10  14:53:00         -4.50   -42.822933    2      1      
iter:  11  14:53:04         -4.89   -42.822947    2      1      
iter:  12  14:53:08         -5.07   -42.822952    2      1      

Converged after 12 iterations.

Dipole moment: (6.480035, 3.741250, 0.001203) |e|*Ang

Energy contributions relative to reference atoms: (reference = -2891956.527156)

Kinetic:       -133.876803
Potential:     +120.306854
External:        +0.000000
XC:             -30.300090
Entropy (-ST):   -0.294024
Local:           +1.194099
--------------------------
Free energy:    -42.969964
Extrapolated:   -42.822952

Dipole-layer corrected work functions: 3.940419, 3.933160 eV

Fermi level: -3.93679

Showing only first 2 kpts
 Kpt  Band  Eigenvalues  Occupancy
  0   108     -2.90890    0.00001
  0   109     -2.89282    0.00001
  0   110     -2.89280    0.00001
  0   111     -1.91584    0.00000

  1   108     -4.46429    0.44218
  1   109     -3.93773    0.22326
  1   110     -3.93642    0.22181
  1   111     -3.73042    0.05008


No gap

Forces in eV/Ang:
  0 Ag    0.00027   -0.00021    0.01180
  1 Ag   -0.00036   -0.00021    0.01180
  2 Ag   -0.00004   -0.00003    0.01348
  3 Ag   -0.00004    0.00033    0.01180
  4 Ag    0.00300    0.00173    0.12607
  5 Ag   -0.00300    0.00173    0.12607
  6 Ag   -0.00000   -0.00346    0.12607
  7 Ag    0.00000    0.00000    0.13614
  8 Ag    0.00002    0.00001    0.01873
  9 Ag    0.00001   -0.01117   -0.00392
 10 Ag   -0.00966    0.00560   -0.00392
 11 Ag    0.00969    0.00560   -0.00392
 12 Ag    0.17525   -0.10123   -0.37911
 13 Ag   -0.17527   -0.10119   -0.37912
 14 Ag   -0.00001   -0.00000   -0.11865
 15 Ag   -0.00004    0.20239   -0.37911
 16 Ag   -0.00377   -0.00218   -0.00962
 17 Ag    0.00383   -0.00218   -0.00953
 18 Ag    0.00003    0.00441   -0.00953
 19 Ag    0.00004    0.00002    0.76169

System changes: positions 

Initializing position-dependent things.

Density initialized from wave functions
                                 
                                 
                                 
                                 
                                 
            Ag     Ag            
       Ag     Ag                 
             Ag     Ag           
        Ag     Ag                
                                 
                Ag     Ag        
                                 
           Ag     Ag             
                                 
            Ag     Ag            
       Ag     Ag                 
             Ag     Ag           
        Ag     Ag                
                                 
                                 
                                 
                                 
                                 

Positions:
   0 Ag    -0.000000    1.698721   15.000003    ( 0.0000,  0.0000,  0.0000)
   1 Ag     2.942271    1.698721   15.000003    ( 0.0000,  0.0000,  0.0000)
   2 Ag     1.471136    4.246803   15.000003    ( 0.0000,  0.0000,  0.0000)
   3 Ag     4.413407    4.246803   15.000003    ( 0.0000,  0.0000,  0.0000)
   4 Ag     0.000000    0.000000   17.402391    ( 0.0000,  0.0000,  0.0000)
   5 Ag     2.942271    0.000000   17.402391    ( 0.0000,  0.0000,  0.0000)
   6 Ag     1.471136    2.548081   17.402391    ( 0.0000,  0.0000,  0.0000)
   7 Ag     4.413407    2.548082   17.402392    ( 0.0000,  0.0000,  0.0000)
   8 Ag     1.471136    0.849361   19.804710    ( 0.0000,  0.0000,  0.0000)
   9 Ag     4.413407    0.849360   19.804709    ( 0.0000,  0.0000,  0.0000)
  10 Ag     2.942271    3.397443   19.804709    ( 0.0000,  0.0000,  0.0000)
  11 Ag     5.884543    3.397443   19.804709    ( 0.0000,  0.0000,  0.0000)
  12 Ag     0.000011    1.698715   22.207011    ( 0.0000,  0.0000,  0.0000)
  13 Ag     2.942260    1.698715   22.207011    ( 0.0000,  0.0000,  0.0000)
  14 Ag     1.471136    4.246803   22.207028    ( 0.0000,  0.0000,  0.0000)
  15 Ag     4.413407    4.246816   22.207011    ( 0.0000,  0.0000,  0.0000)
  16 Ag    -0.000000   -0.000000   24.609416    ( 0.0000,  0.0000,  0.0000)
  17 Ag     2.942272   -0.000000   24.609416    ( 0.0000,  0.0000,  0.0000)
  18 Ag     1.471136    2.548082   24.609416    ( 0.0000,  0.0000,  0.0000)
  19 Ag     4.413407    2.548082   24.341964    ( 0.0000,  0.0000,  0.0000)

Unit cell:
           periodic     x           y           z      points  spacing
  1. axis:    yes    5.884543    0.000000    0.000000    32     0.1593
  2. axis:    yes    2.942271    5.096163    0.000000    32     0.1593
  3. axis:    no     0.000000    0.000000   39.609418   192     0.2063

  Lengths:   5.884543   5.884543  39.609418
  Angles:   90.000000  90.000000  60.000000

Effective grid spacing dv^(1/3) = 0.1821

                     log10-error:    total        iterations:
           time      wfs    density  energy       fermi  poisson
iter:   1  14:53:37                 -42.764469    2      1      
iter:   2  14:53:41         -3.40   -42.764860    3      1      
iter:   3  14:53:45         -3.20   -42.763064    2      1      
iter:   4  14:53:49         -3.71   -42.762511    2      1      
iter:   5  14:53:53         -3.80   -42.762753    3      1      
iter:   6  14:53:57         -4.04   -42.762370    3      1      
iter:   7  14:54:02         -3.95   -42.762454    3      1      
iter:   8  14:54:06         -4.46   -42.762458    2      1      
iter:   9  14:54:10         -4.51   -42.762465    2      1      
iter:  10  14:54:14         -4.44   -42.762489    2      1      
iter:  11  14:54:18         -4.87   -42.762502    2      1      
iter:  12  14:54:22         -4.94   -42.762502    2      1      
iter:  13  14:54:27         -5.21   -42.762497    2      1      

Converged after 13 iterations.

Dipole moment: (6.480258, 3.741379, 0.001380) |e|*Ang

Energy contributions relative to reference atoms: (reference = -2891956.527156)

Kinetic:       -131.461910
Potential:     +118.237832
External:        +0.000000
XC:             -30.590441
Entropy (-ST):   -0.289059
Local:           +1.196552
--------------------------
Free energy:    -42.907026
Extrapolated:   -42.762497

Dipole-layer corrected work functions: 3.939739, 3.931413 eV

Fermi level: -3.93558

Showing only first 2 kpts
 Kpt  Band  Eigenvalues  Occupancy
  0   108     -2.90582    0.00001
  0   109     -2.89082    0.00001
  0   110     -2.89081    0.00001
  0   111     -1.95233    0.00000

  1   108     -4.46511    0.44223
  1   109     -3.94279    0.23024
  1   110     -3.93769    0.22458
  1   111     -3.71890    0.04568


No gap

Forces in eV/Ang:
  0 Ag    0.00082   -0.00052    0.01303
  1 Ag   -0.00091   -0.00052    0.01303
  2 Ag   -0.00004   -0.00003    0.01463
  3 Ag   -0.00004    0.00097    0.01303
  4 Ag    0.00397    0.00229    0.12300
  5 Ag   -0.00397    0.00229    0.12300
  6 Ag   -0.00000   -0.00458    0.12300
  7 Ag    0.00000    0.00000    0.13593
  8 Ag    0.00002    0.00001    0.02227
  9 Ag    0.00001   -0.01535   -0.00690
 10 Ag   -0.01329    0.00769   -0.00690
 11 Ag    0.01332    0.00769   -0.00690
 12 Ag    0.27360   -0.15803   -0.50653
 13 Ag   -0.27360   -0.15796   -0.50654
 14 Ag   -0.00001   -0.00000   -0.11362
 15 Ag   -0.00006    0.31596   -0.50653
 16 Ag   -0.00469   -0.00271   -0.00924
 17 Ag    0.00476   -0.00271   -0.00912
 18 Ag    0.00003    0.00547   -0.00912
 19 Ag    0.00004    0.00002    1.14539

System changes: positions 

Initializing position-dependent things.

Density initialized from wave functions
                                 
                                 
                                 
                                 
                                 
            Ag     Ag            
       Ag     Ag                 
             Ag     Ag           
        Ag     Ag                
                                 
                Ag     Ag        
                                 
           Ag     Ag             
                                 
            Ag     Ag            
       Ag     Ag                 
             Ag     Ag           
        Ag     Ag                
                                 
                                 
                                 
                                 
                                 

Positions:
   0 Ag    -0.000000    1.698721   15.000004    ( 0.0000,  0.0000,  0.0000)
   1 Ag     2.942271    1.698721   15.000004    ( 0.0000,  0.0000,  0.0000)
   2 Ag     1.471136    4.246803   15.000004    ( 0.0000,  0.0000,  0.0000)
   3 Ag     4.413407    4.246803   15.000004    ( 0.0000,  0.0000,  0.0000)
   4 Ag     0.000000    0.000000   17.402407    ( 0.0000,  0.0000,  0.0000)
   5 Ag     2.942271    0.000000   17.402407    ( 0.0000,  0.0000,  0.0000)
   6 Ag     1.471136    2.548081   17.402407    ( 0.0000,  0.0000,  0.0000)
   7 Ag     4.413407    2.548082   17.402409    ( 0.0000,  0.0000,  0.0000)
   8 Ag     1.471136    0.849361   19.804712    ( 0.0000,  0.0000,  0.0000)
   9 Ag     4.413407    0.849359   19.804708    ( 0.0000,  0.0000,  0.0000)
  10 Ag     2.942270    3.397443   19.804708    ( 0.0000,  0.0000,  0.0000)
  11 Ag     5.884544    3.397443   19.804708    ( 0.0000,  0.0000,  0.0000)
  12 Ag     0.000024    1.698707   22.206977    ( 0.0000,  0.0000,  0.0000)
  13 Ag     2.942247    1.698707   22.206977    ( 0.0000,  0.0000,  0.0000)
  14 Ag     1.471136    4.246803   22.207013    ( 0.0000,  0.0000,  0.0000)
  15 Ag     4.413407    4.246831   22.206977    ( 0.0000,  0.0000,  0.0000)
  16 Ag    -0.000001   -0.000000   24.609415    ( 0.0000,  0.0000,  0.0000)
  17 Ag     2.942272   -0.000000   24.609415    ( 0.0000,  0.0000,  0.0000)
  18 Ag     1.471136    2.548082   24.609415    ( 0.0000,  0.0000,  0.0000)
  19 Ag     4.413407    2.548082   24.275145    ( 0.0000,  0.0000,  0.0000)

Unit cell:
           periodic     x           y           z      points  spacing
  1. axis:    yes    5.884543    0.000000    0.000000    32     0.1593
  2. axis:    yes    2.942271    5.096163    0.000000    32     0.1593
  3. axis:    no     0.000000    0.000000   39.609418   192     0.2063

  Lengths:   5.884543   5.884543  39.609418
  Angles:   90.000000  90.000000  60.000000

Effective grid spacing dv^(1/3) = 0.1821

                     log10-error:    total        iterations:
           time      wfs    density  energy       fermi  poisson
iter:   1  14:54:55                 -42.674394    3      1      
iter:   2  14:54:59         -3.60   -42.674125    2      1      
iter:   3  14:55:03         -3.47   -42.673848    2      1      
iter:   4  14:55:07         -3.72   -42.673395    2      1      
iter:   5  14:55:12         -3.84   -42.673609    3      1      
iter:   6  14:55:16         -4.03   -42.673354    3      1      
iter:   7  14:55:20         -4.36   -42.673360    2      1      
iter:   8  14:55:24         -4.42   -42.673365    2      1      
iter:   9  14:55:28         -4.71   -42.673363    2      1      
iter:  10  14:55:33         -4.68   -42.673369    2      1      
iter:  11  14:55:37         -4.83   -42.673388    2      1      
iter:  12  14:55:41         -5.05   -42.673389    2      1      

Converged after 12 iterations.

Dipole moment: (6.480785, 3.741683, 0.001625) |e|*Ang

Energy contributions relative to reference atoms: (reference = -2891956.527156)

Kinetic:       -128.508158
Potential:     +115.700156
External:        +0.000000
XC:             -30.924764
Entropy (-ST):   -0.283952
Local:           +1.201353
--------------------------
Free energy:    -42.815364
Extrapolated:   -42.673389

Dipole-layer corrected work functions: 3.940225, 3.930419 eV

Fermi level: -3.93532

Showing only first 2 kpts
 Kpt  Band  Eigenvalues  Occupancy
  0   108     -2.90307    0.00001
  0   109     -2.88905    0.00001
  0   110     -2.88904    0.00001
  0   111     -1.99499    0.00000

  1   108     -4.46652    0.44226
  1   109     -3.94944    0.23789
  1   110     -3.93929    0.22663
  1   111     -3.70752    0.04132


No gap

Forces in eV/Ang:
  0 Ag    0.00151   -0.00092    0.01250
  1 Ag   -0.00159   -0.00092    0.01250
  2 Ag   -0.00004   -0.00003    0.01369
  3 Ag   -0.00004    0.00177    0.01250
  4 Ag    0.00504    0.00291    0.12071
  5 Ag   -0.00504    0.00291    0.12071
  6 Ag   -0.00000   -0.00581    0.12071
  7 Ag    0.00000    0.00000    0.13678
  8 Ag    0.00002    0.00001    0.02601
  9 Ag    0.00001   -0.01960   -0.00888
 10 Ag   -0.01696    0.00981   -0.00888
 11 Ag    0.01700    0.00981   -0.00888
 12 Ag    0.40173   -0.23202   -0.66752
 13 Ag   -0.40172   -0.23193   -0.66752
 14 Ag   -0.00000   -0.00000   -0.10843
 15 Ag   -0.00007    0.46392   -0.66752
 16 Ag   -0.00530   -0.00306   -0.00939
 17 Ag    0.00537   -0.00306   -0.00924
 18 Ag    0.00003    0.00618   -0.00924
 19 Ag    0.00004    0.00002    1.62317

System changes: positions 

Initializing position-dependent things.

Density initialized from wave functions
                                 
                                 
                                 
                                 
                                 
            Ag     Ag            
       Ag     Ag                 
             Ag     Ag           
        Ag     Ag                
                                 
                Ag     Ag        
                                 
           Ag     Ag             
                                 
            Ag     Ag            
       Ag     Ag                 
             Ag     Ag           
        Ag     Ag                
                                 
                                 
                                 
                                 
                                 

Positions:
   0 Ag     0.000000    1.698721   15.000006    ( 0.0000,  0.0000,  0.0000)
   1 Ag     2.942271    1.698721   15.000006    ( 0.0000,  0.0000,  0.0000)
   2 Ag     1.471136    4.246803   15.000006    ( 0.0000,  0.0000,  0.0000)
   3 Ag     4.413407    4.246803   15.000006    ( 0.0000,  0.0000,  0.0000)
   4 Ag     0.000001    0.000000   17.402426    ( 0.0000,  0.0000,  0.0000)
   5 Ag     2.942271    0.000000   17.402426    ( 0.0000,  0.0000,  0.0000)
   6 Ag     1.471136    2.548081   17.402426    ( 0.0000,  0.0000,  0.0000)
   7 Ag     4.413407    2.548082   17.402429    ( 0.0000,  0.0000,  0.0000)
   8 Ag     1.471136    0.849361   19.804714    ( 0.0000,  0.0000,  0.0000)
   9 Ag     4.413407    0.849358   19.804708    ( 0.0000,  0.0000,  0.0000)
  10 Ag     2.942269    3.397444   19.804708    ( 0.0000,  0.0000,  0.0000)
  11 Ag     5.884545    3.397444   19.804708    ( 0.0000,  0.0000,  0.0000)
  12 Ag     0.000047    1.698694   22.206927    ( 0.0000,  0.0000,  0.0000)
  13 Ag     2.942225    1.698694   22.206927    ( 0.0000,  0.0000,  0.0000)
  14 Ag     1.471136    4.246803   22.206996    ( 0.0000,  0.0000,  0.0000)
  15 Ag     4.413407    4.246857   22.206927    ( 0.0000,  0.0000,  0.0000)
  16 Ag    -0.000001   -0.000001   24.609414    ( 0.0000,  0.0000,  0.0000)
  17 Ag     2.942272   -0.000001   24.609414    ( 0.0000,  0.0000,  0.0000)
  18 Ag     1.471136    2.548083   24.609414    ( 0.0000,  0.0000,  0.0000)
  19 Ag     4.413407    2.548082   24.208362    ( 0.0000,  0.0000,  0.0000)

Unit cell:
           periodic     x           y           z      points  spacing
  1. axis:    yes    5.884543    0.000000    0.000000    32     0.1593
  2. axis:    yes    2.942271    5.096163    0.000000    32     0.1593
  3. axis:    no     0.000000    0.000000   39.609418   192     0.2063

  Lengths:   5.884543   5.884543  39.609418
  Angles:   90.000000  90.000000  60.000000

Effective grid spacing dv^(1/3) = 0.1821

                     log10-error:    total        iterations:
           time      wfs    density  energy       fermi  poisson
iter:   1  14:56:09                 -42.549560    3      1      
iter:   2  14:56:13         -3.47   -42.549459    2      1      
iter:   3  14:56:18         -3.54   -42.549152    2      1      
iter:   4  14:56:22         -3.55   -42.548783    3      1      
iter:   5  14:56:26         -3.86   -42.548921    2      1      
iter:   6  14:56:30         -4.00   -42.548679    3      1      
iter:   7  14:56:34         -4.31   -42.548662    2      1      
iter:   8  14:56:39         -4.36   -42.548671    2      1      
iter:   9  14:56:43         -4.36   -42.548659    2      1      
iter:  10  14:56:47         -4.65   -42.548700    2      1      
iter:  11  14:56:51         -4.93   -42.548700    2      1      
iter:  12  14:56:55         -4.96   -42.548679    2      1      
iter:  13  14:56:59         -5.20   -42.548673    2      1      

Converged after 13 iterations.

Dipole moment: (6.481555, 3.742128, 0.001607) |e|*Ang

Energy contributions relative to reference atoms: (reference = -2891956.527156)

Kinetic:       -124.805745
Potential:     +112.508333
External:        +0.000000
XC:             -31.315087
Entropy (-ST):   -0.278875
Local:           +1.203263
--------------------------
Free energy:    -42.688111
Extrapolated:   -42.548673

Dipole-layer corrected work functions: 3.940340, 3.930640 eV

Fermi level: -3.93549

Showing only first 2 kpts
 Kpt  Band  Eigenvalues  Occupancy
  0   108     -2.90065    0.00001
  0   109     -2.88725    0.00001
  0   110     -2.88723    0.00001
  0   111     -2.03923    0.00000

  1   108     -4.46827    0.44230
  1   109     -3.95684    0.24585
  1   110     -3.94068    0.22799
  1   111     -3.69605    0.03716


No gap

Forces in eV/Ang:
  0 Ag    0.00236   -0.00141    0.01468
  1 Ag   -0.00244   -0.00141    0.01468
  2 Ag   -0.00004   -0.00003    0.01517
  3 Ag   -0.00004    0.00275    0.01468
  4 Ag    0.00606    0.00350    0.11790
  5 Ag   -0.00606    0.00349    0.11789
  6 Ag   -0.00000   -0.00699    0.11789
  7 Ag    0.00000    0.00000    0.13672
  8 Ag    0.00002    0.00001    0.02910
  9 Ag    0.00001   -0.02424   -0.01186
 10 Ag   -0.02098    0.01213   -0.01186
 11 Ag    0.02101    0.01213   -0.01186
 12 Ag    0.56610   -0.32694   -0.86338
 13 Ag   -0.56607   -0.32682   -0.86338
 14 Ag   -0.00000   -0.00000   -0.10345
 15 Ag   -0.00008    0.65373   -0.86338
 16 Ag   -0.00579   -0.00334   -0.00821
 17 Ag    0.00585   -0.00334   -0.00804
 18 Ag    0.00003    0.00674   -0.00804
 19 Ag    0.00003    0.00002    2.22127

System changes: positions 

Initializing position-dependent things.

Density initialized from wave functions
                                 
                                 
                                 
                                 
                                 
            Ag     Ag            
       Ag     Ag                 
             Ag     Ag           
        Ag     Ag                
                                 
                Ag     Ag        
                                 
           Ag     Ag             
                                 
            Ag     Ag            
       Ag     Ag                 
             Ag     Ag           
        Ag     Ag                
                                 
                                 
                                 
                                 
                                 

Positions:
   0 Ag     0.000000    1.698721   15.000008    ( 0.0000,  0.0000,  0.0000)
   1 Ag     2.942271    1.698721   15.000008    ( 0.0000,  0.0000,  0.0000)
   2 Ag     1.471136    4.246803   15.000008    ( 0.0000,  0.0000,  0.0000)
   3 Ag     4.413407    4.246803   15.000008    ( 0.0000,  0.0000,  0.0000)
   4 Ag     0.000001    0.000001   17.402447    ( 0.0000,  0.0000,  0.0000)
   5 Ag     2.942270    0.000001   17.402447    ( 0.0000,  0.0000,  0.0000)
   6 Ag     1.471136    2.548080   17.402447    ( 0.0000,  0.0000,  0.0000)
   7 Ag     4.413407    2.548082   17.402451    ( 0.0000,  0.0000,  0.0000)
   8 Ag     1.471136    0.849361   19.804716    ( 0.0000,  0.0000,  0.0000)
   9 Ag     4.413407    0.849356   19.804707    ( 0.0000,  0.0000,  0.0000)
  10 Ag     2.942267    3.397445   19.804707    ( 0.0000,  0.0000,  0.0000)
  11 Ag     5.884547    3.397445   19.804707    ( 0.0000,  0.0000,  0.0000)
  12 Ag     0.000081    1.698674   22.206858    ( 0.0000,  0.0000,  0.0000)
  13 Ag     2.942190    1.698674   22.206858    ( 0.0000,  0.0000,  0.0000)
  14 Ag     1.471136    4.246803   22.206976    ( 0.0000,  0.0000,  0.0000)
  15 Ag     4.413407    4.246897   22.206858    ( 0.0000,  0.0000,  0.0000)
  16 Ag    -0.000001   -0.000001   24.609413    ( 0.0000,  0.0000,  0.0000)
  17 Ag     2.942273   -0.000001   24.609413    ( 0.0000,  0.0000,  0.0000)
  18 Ag     1.471136    2.548083   24.609413    ( 0.0000,  0.0000,  0.0000)
  19 Ag     4.413407    2.548082   24.141629    ( 0.0000,  0.0000,  0.0000)

Unit cell:
           periodic     x           y           z      points  spacing
  1. axis:    yes    5.884543    0.000000    0.000000    32     0.1593
  2. axis:    yes    2.942271    5.096163    0.000000    32     0.1593
  3. axis:    no     0.000000    0.000000   39.609418   192     0.2063

  Lengths:   5.884543   5.884543  39.609418
  Angles:   90.000000  90.000000  60.000000

Effective grid spacing dv^(1/3) = 0.1821

                     log10-error:    total        iterations:
           time      wfs    density  energy       fermi  poisson
iter:   1  14:57:28                 -42.381977    3      1      
iter:   2  14:57:32         -3.25   -42.383309    2      1      
iter:   3  14:57:36         -3.19   -42.380666    2      1      
iter:   4  14:57:40         -3.59   -42.380325    2      1      
iter:   5  14:57:45         -3.83   -42.380413    2      1      
iter:   6  14:57:49         -3.97   -42.380366    2      1      
iter:   7  14:57:53         -4.02   -42.380133    2      1      
iter:   8  14:57:57         -4.31   -42.380117    2      1      
iter:   9  14:58:01         -4.36   -42.380106    1      1      
iter:  10  14:58:06         -4.51   -42.380115    2      1      
iter:  11  14:58:10         -4.63   -42.380145    2      1      
iter:  12  14:58:14         -4.98   -42.380136    2      1      
iter:  13  14:58:18         -5.02   -42.380129    2      1      

Converged after 13 iterations.

Dipole moment: (6.482893, 3.742900, 0.001717) |e|*Ang

Energy contributions relative to reference atoms: (reference = -2891956.527156)

Kinetic:       -120.360220
Potential:     +108.672619
External:        +0.000000
XC:             -31.764749
Entropy (-ST):   -0.273910
Local:           +1.209176
--------------------------
Free energy:    -42.517084
Extrapolated:   -42.380129

Dipole-layer corrected work functions: 3.941465, 3.931104 eV

Fermi level: -3.93628

Showing only first 2 kpts
 Kpt  Band  Eigenvalues  Occupancy
  0   108     -2.89899    0.00001
  0   109     -2.88557    0.00001
  0   110     -2.88556    0.00001
  0   111     -2.08359    0.00000

  1   108     -4.47054    0.44233
  1   109     -3.96502    0.25393
  1   110     -3.94228    0.22888
  1   111     -3.68474    0.03324


No gap

Forces in eV/Ang:
  0 Ag    0.00327   -0.00194    0.01468
  1 Ag   -0.00336   -0.00194    0.01468
  2 Ag   -0.00004   -0.00003    0.01418
  3 Ag   -0.00004    0.00381    0.01468
  4 Ag    0.00717    0.00414    0.11605
  5 Ag   -0.00717    0.00414    0.11605
  6 Ag   -0.00000   -0.00828    0.11605
  7 Ag    0.00000    0.00000    0.13785
  8 Ag    0.00002    0.00001    0.03127
  9 Ag    0.00001   -0.02864   -0.01432
 10 Ag   -0.02479    0.01433   -0.01432
 11 Ag    0.02483    0.01433   -0.01432
 12 Ag    0.77526   -0.44771   -1.10419
 13 Ag   -0.77521   -0.44757   -1.10418
 14 Ag    0.00000    0.00000   -0.09690
 15 Ag   -0.00010    0.89525   -1.10419
 16 Ag   -0.00587   -0.00339   -0.00877
 17 Ag    0.00594   -0.00339   -0.00858
 18 Ag    0.00003    0.00684   -0.00858
 19 Ag    0.00003    0.00002    2.94581

System changes: positions 

Initializing position-dependent things.

Density initialized from wave functions
                                 
                                 
                                 
                                 
                                 
            Ag     Ag            
       Ag     Ag                 
             Ag     Ag           
        Ag     Ag                
                                 
                Ag     Ag        
                                 
           Ag     Ag             
                                 
            Ag     Ag            
       Ag     Ag                 
             Ag     Ag           
        Ag     Ag                
                                 
                                 
                                 
                                 
                                 

Positions:
   0 Ag     0.000000    1.698721   15.000010    ( 0.0000,  0.0000,  0.0000)
   1 Ag     2.942271    1.698721   15.000010    ( 0.0000,  0.0000,  0.0000)
   2 Ag     1.471136    4.246803   15.000011    ( 0.0000,  0.0000,  0.0000)
   3 Ag     4.413407    4.246803   15.000010    ( 0.0000,  0.0000,  0.0000)
   4 Ag     0.000002    0.000001   17.402471    ( 0.0000,  0.0000,  0.0000)
   5 Ag     2.942269    0.000001   17.402471    ( 0.0000,  0.0000,  0.0000)
   6 Ag     1.471136    2.548080   17.402471    ( 0.0000,  0.0000,  0.0000)
   7 Ag     4.413407    2.548082   17.402477    ( 0.0000,  0.0000,  0.0000)
   8 Ag     1.471136    0.849361   19.804720    ( 0.0000,  0.0000,  0.0000)
   9 Ag     4.413407    0.849353   19.804706    ( 0.0000,  0.0000,  0.0000)
  10 Ag     2.942265    3.397446   19.804706    ( 0.0000,  0.0000,  0.0000)
  11 Ag     5.884549    3.397446   19.804706    ( 0.0000,  0.0000,  0.0000)
  12 Ag     0.000134    1.698644   22.206765    ( 0.0000,  0.0000,  0.0000)
  13 Ag     2.942138    1.698644   22.206765    ( 0.0000,  0.0000,  0.0000)
  14 Ag     1.471136    4.246803   22.206954    ( 0.0000,  0.0000,  0.0000)
  15 Ag     4.413407    4.246957   22.206765    ( 0.0000,  0.0000,  0.0000)
  16 Ag    -0.000002   -0.000001   24.609411    ( 0.0000,  0.0000,  0.0000)
  17 Ag     2.942274   -0.000001   24.609411    ( 0.0000,  0.0000,  0.0000)
  18 Ag     1.471136    2.548084   24.609411    ( 0.0000,  0.0000,  0.0000)
  19 Ag     4.413407    2.548082   24.074962    ( 0.0000,  0.0000,  0.0000)

Unit cell:
           periodic     x           y           z      points  spacing
  1. axis:    yes    5.884543    0.000000    0.000000    32     0.1593
  2. axis:    yes    2.942271    5.096163    0.000000    32     0.1593
  3. axis:    no     0.000000    0.000000   39.609418   192     0.2063

  Lengths:   5.884543   5.884543  39.609418
  Angles:   90.000000  90.000000  60.000000

Effective grid spacing dv^(1/3) = 0.1821

                     log10-error:    total        iterations:
           time      wfs    density  energy       fermi  poisson
iter:   1  14:58:47                 -42.163856    3      1      
iter:   2  14:58:51         -3.03   -42.169501    2      1      
iter:   3  14:58:55         -2.91   -42.159604    2      1      
iter:   4  14:58:59         -3.58   -42.159204    2      1      
iter:   5  14:59:03         -3.80   -42.159227    2      1      
iter:   6  14:59:08         -3.89   -42.159168    2      1      
iter:   7  14:59:12         -4.05   -42.158971    2      1      
iter:   8  14:59:16         -4.29   -42.158964    1      1      
iter:   9  14:59:20         -4.36   -42.158978    2      1      
iter:  10  14:59:24         -4.55   -42.158993    2      1      
iter:  11  14:59:29         -4.57   -42.158995    2      1      
iter:  12  14:59:33         -4.87   -42.158994    2      1      
iter:  13  14:59:37         -4.95   -42.158992    2      1      
iter:  14  14:59:41         -5.23   -42.159000    2      1      

Converged after 14 iterations.

Dipole moment: (6.484708, 3.743948, 0.001770) |e|*Ang

Energy contributions relative to reference atoms: (reference = -2891956.527156)

Kinetic:       -115.052725
Potential:     +104.091280
External:        +0.000000
XC:             -32.280162
Entropy (-ST):   -0.269178
Local:           +1.217197
--------------------------
Free energy:    -42.293589
Extrapolated:   -42.159000

Dipole-layer corrected work functions: 3.943022, 3.932340 eV

Fermi level: -3.93768

Showing only first 2 kpts
 Kpt  Band  Eigenvalues  Occupancy
  0   108     -2.89841    0.00001
  0   109     -2.88441    0.00001
  0   110     -2.88439    0.00001
  0   111     -2.12687    0.00000

  1   108     -4.47363    0.44236
  1   109     -3.97375    0.26187
  1   110     -3.94412    0.22938
  1   111     -3.67386    0.02965


No gap

Forces in eV/Ang:
  0 Ag    0.00428   -0.00252    0.01478
  1 Ag   -0.00437   -0.00252    0.01478
  2 Ag   -0.00004   -0.00003    0.01307
  3 Ag   -0.00004    0.00497    0.01478
  4 Ag    0.00813    0.00470    0.11371
  5 Ag   -0.00813    0.00469    0.11370
  6 Ag   -0.00000   -0.00939    0.11370
  7 Ag    0.00000    0.00000    0.13787
  8 Ag    0.00002    0.00001    0.03240
  9 Ag    0.00001   -0.03357   -0.01808
 10 Ag   -0.02907    0.01680   -0.01808
 11 Ag    0.02910    0.01680   -0.01808
 12 Ag    1.03833   -0.59962   -1.39134
 13 Ag   -1.03826   -0.59944   -1.39132
 14 Ag    0.00000    0.00000   -0.09122
 15 Ag   -0.00012    1.19903   -1.39134
 16 Ag   -0.00589   -0.00340   -0.00669
 17 Ag    0.00596   -0.00340   -0.00649
 18 Ag    0.00003    0.00686   -0.00649
 19 Ag    0.00002    0.00001    3.80807

System changes: positions 

Initializing position-dependent things.

Density initialized from wave functions
                                 
                                 
                                 
                                 
                                 
            Ag     Ag            
       Ag     Ag                 
             Ag     Ag           
        Ag     Ag                
                                 
                Ag     Ag        
                                 
           Ag     Ag             
                                 
            Ag     Ag            
       Ag     Ag                 
             Ag     Ag           
        Ag     Ag                
                                 
                                 
                                 
                                 
                                 

Positions:
   0 Ag     0.000001    1.698721   15.000013    ( 0.0000,  0.0000,  0.0000)
   1 Ag     2.942271    1.698721   15.000013    ( 0.0000,  0.0000,  0.0000)
   2 Ag     1.471136    4.246803   15.000014    ( 0.0000,  0.0000,  0.0000)
   3 Ag     4.413407    4.246804   15.000013    ( 0.0000,  0.0000,  0.0000)
   4 Ag     0.000003    0.000002   17.402497    ( 0.0000,  0.0000,  0.0000)
   5 Ag     2.942269    0.000002   17.402497    ( 0.0000,  0.0000,  0.0000)
   6 Ag     1.471136    2.548079   17.402497    ( 0.0000,  0.0000,  0.0000)
   7 Ag     4.413407    2.548082   17.402506    ( 0.0000,  0.0000,  0.0000)
   8 Ag     1.471136    0.849361   19.804724    ( 0.0000,  0.0000,  0.0000)
   9 Ag     4.413407    0.849350   19.804704    ( 0.0000,  0.0000,  0.0000)
  10 Ag     2.942262    3.397447   19.804704    ( 0.0000,  0.0000,  0.0000)
  11 Ag     5.884552    3.397447   19.804704    ( 0.0000,  0.0000,  0.0000)
  12 Ag     0.000209    1.698600   22.206640    ( 0.0000,  0.0000,  0.0000)
  13 Ag     2.942062    1.698600   22.206640    ( 0.0000,  0.0000,  0.0000)
  14 Ag     1.471136    4.246803   22.206930    ( 0.0000,  0.0000,  0.0000)
  15 Ag     4.413407    4.247044   22.206640    ( 0.0000,  0.0000,  0.0000)
  16 Ag    -0.000003   -0.000002   24.609409    ( 0.0000,  0.0000,  0.0000)
  17 Ag     2.942274   -0.000002   24.609409    ( 0.0000,  0.0000,  0.0000)
  18 Ag     1.471136    2.548085   24.609409    ( 0.0000,  0.0000,  0.0000)
  19 Ag     4.413407    2.548082   24.008380    ( 0.0000,  0.0000,  0.0000)

Unit cell:
           periodic     x           y           z      points  spacing
  1. axis:    yes    5.884543    0.000000    0.000000    32     0.1593
  2. axis:    yes    2.942271    5.096163    0.000000    32     0.1593
  3. axis:    no     0.000000    0.000000   39.609418   192     0.2063

  Lengths:   5.884543   5.884543  39.609418
  Angles:   90.000000  90.000000  60.000000

Effective grid spacing dv^(1/3) = 0.1821

                     log10-error:    total        iterations:
           time      wfs    density  energy       fermi  poisson
iter:   1  15:00:10                 -41.883344    3      1      
iter:   2  15:00:14         -2.92   -41.893396    3      1      
iter:   3  15:00:18         -2.78   -41.875748    2      1      
iter:   4  15:00:22         -3.56   -41.875326    3      1      
iter:   5  15:00:27         -3.76   -41.875302    2      1      
iter:   6  15:00:31         -3.85   -41.875076    2      1      
iter:   7  15:00:35         -4.06   -41.875058    1      1      
iter:   8  15:00:39         -4.20   -41.875032    2      1      
iter:   9  15:00:43         -4.36   -41.874976    2      1      
iter:  10  15:00:48         -4.47   -41.874986    2      1      
iter:  11  15:00:52         -4.56   -41.874981    2      1      
iter:  12  15:00:56         -4.59   -41.874998    2      1      
iter:  13  15:01:00         -4.82   -41.875014    2      1      
iter:  14  15:01:04         -5.08   -41.875012    2      1      

Converged after 14 iterations.

Dipole moment: (6.487315, 3.745453, 0.001936) |e|*Ang

Energy contributions relative to reference atoms: (reference = -2891956.527156)

Kinetic:       -108.720707
Potential:      +98.622748
External:        +0.000000
XC:             -32.872814
Entropy (-ST):   -0.264834
Local:           +1.228178
--------------------------
Free energy:    -42.007429
Extrapolated:   -41.875012

Dipole-layer corrected work functions: 3.944643, 3.932962 eV

Fermi level: -3.93880

Showing only first 2 kpts
 Kpt  Band  Eigenvalues  Occupancy
  0   108     -2.89787    0.00001
  0   109     -2.88269    0.00001
  0   110     -2.88267    0.00001
  0   111     -2.16716    0.00000

  1   108     -4.47643    0.44240
  1   109     -3.98197    0.26946
  1   110     -3.94548    0.22964
  1   111     -3.66291    0.02648


No gap

Forces in eV/Ang:
  0 Ag    0.00528   -0.00310    0.01448
  1 Ag   -0.00537   -0.00310    0.01448
  2 Ag   -0.00004   -0.00003    0.01134
  3 Ag   -0.00004    0.00612    0.01448
  4 Ag    0.00913    0.00527    0.11294
  5 Ag   -0.00913    0.00527    0.11294
  6 Ag   -0.00000   -0.01054    0.11294
  7 Ag    0.00000    0.00000    0.13953
  8 Ag    0.00002    0.00001    0.03129
  9 Ag    0.00001   -0.03827   -0.02273
 10 Ag   -0.03314    0.01915   -0.02273
 11 Ag    0.03317    0.01915   -0.02272
 12 Ag    1.36605   -0.78885   -1.73542
 13 Ag   -1.36595   -0.78863   -1.73538
 14 Ag    0.00000    0.00000   -0.08402
 15 Ag   -0.00014    1.57746   -1.73542
 16 Ag   -0.00564   -0.00326   -0.00679
 17 Ag    0.00571   -0.00326   -0.00658
 18 Ag    0.00003    0.00657   -0.00658
 19 Ag    0.00001    0.00000    4.85686

System changes: positions 

Initializing position-dependent things.

Density initialized from wave functions
                                 
                                 
                                 
                                 
                                 
            Ag                   
       Ag     Ag   Ag            
             Ag     Ag           
        Ag     Ag                
                                 
                Ag     Ag        
                                 
           Ag     Ag             
                                 
            Ag     Ag            
       Ag     Ag                 
             Ag     Ag           
        Ag     Ag                
                                 
                                 
                                 
                                 
                                 

Positions:
   0 Ag     0.000001    1.698721   15.000016    ( 0.0000,  0.0000,  0.0000)
   1 Ag     2.942270    1.698721   15.000016    ( 0.0000,  0.0000,  0.0000)
   2 Ag     1.471136    4.246803   15.000017    ( 0.0000,  0.0000,  0.0000)
   3 Ag     4.413407    4.246804   15.000016    ( 0.0000,  0.0000,  0.0000)
   4 Ag     0.000004    0.000002   17.402526    ( 0.0000,  0.0000,  0.0000)
   5 Ag     2.942268    0.000002   17.402526    ( 0.0000,  0.0000,  0.0000)
   6 Ag     1.471136    2.548077   17.402526    ( 0.0000,  0.0000,  0.0000)
   7 Ag     4.413407    2.548082   17.402538    ( 0.0000,  0.0000,  0.0000)
   8 Ag     1.471136    0.849361   19.804728    ( 0.0000,  0.0000,  0.0000)
   9 Ag     4.413407    0.849346   19.804702    ( 0.0000,  0.0000,  0.0000)
  10 Ag     2.942259    3.397450   19.804702    ( 0.0000,  0.0000,  0.0000)
  11 Ag     5.884555    3.397450   19.804702    ( 0.0000,  0.0000,  0.0000)
  12 Ag     0.000315    1.698539   22.206477    ( 0.0000,  0.0000,  0.0000)
  13 Ag     2.941956    1.698539   22.206477    ( 0.0000,  0.0000,  0.0000)
  14 Ag     1.471136    4.246803   22.206905    ( 0.0000,  0.0000,  0.0000)
  15 Ag     4.413407    4.247166   22.206477    ( 0.0000,  0.0000,  0.0000)
  16 Ag    -0.000004   -0.000002   24.609407    ( 0.0000,  0.0000,  0.0000)
  17 Ag     2.942275   -0.000002   24.609408    ( 0.0000,  0.0000,  0.0000)
  18 Ag     1.471136    2.548086   24.609408    ( 0.0000,  0.0000,  0.0000)
  19 Ag     4.413407    2.548082   23.941907    ( 0.0000,  0.0000,  0.0000)

Unit cell:
           periodic     x           y           z      points  spacing
  1. axis:    yes    5.884543    0.000000    0.000000    32     0.1593
  2. axis:    yes    2.942271    5.096163    0.000000    32     0.1593
  3. axis:    no     0.000000    0.000000   39.609418   192     0.2063

  Lengths:   5.884543   5.884543  39.609418
  Angles:   90.000000  90.000000  60.000000

Effective grid spacing dv^(1/3) = 0.1821

                     log10-error:    total        iterations:
           time      wfs    density  energy       fermi  poisson
iter:   1  15:01:33                 -41.529153    2      1      
iter:   2  15:01:37         -2.83   -41.544379    3      1      
iter:   3  15:01:41         -2.69   -41.517043    2      1      
iter:   4  15:01:46         -3.52   -41.516553    3      1      
iter:   5  15:01:50         -3.70   -41.516431    3      1      
iter:   6  15:01:54         -3.79   -41.516193    3      1      
iter:   7  15:01:58         -4.01   -41.516166    2      1      
iter:   8  15:02:02         -4.13   -41.516126    2      1      
iter:   9  15:02:07         -4.33   -41.516067    2      1      
iter:  10  15:02:11         -4.43   -41.516077    2      1      
iter:  11  15:02:15         -4.52   -41.516071    2      1      
iter:  12  15:02:19         -4.48   -41.516086    2      1      
iter:  13  15:02:24         -4.82   -41.516098    2      1      
iter:  14  15:02:28         -5.05   -41.516098    2      1      

Converged after 14 iterations.

Dipole moment: (6.490574, 3.747334, 0.002201) |e|*Ang

Energy contributions relative to reference atoms: (reference = -2891956.527156)

Kinetic:       -101.218825
Potential:      +92.144019
External:        +0.000000
XC:             -33.551383
Entropy (-ST):   -0.260947
Local:           +1.240564
--------------------------
Free energy:    -41.646571
Extrapolated:   -41.516098

Dipole-layer corrected work functions: 3.945969, 3.932691 eV

Fermi level: -3.93933

Showing only first 2 kpts
 Kpt  Band  Eigenvalues  Occupancy
  0   108     -2.89738    0.00001
  0   109     -2.88060    0.00001
  0   110     -2.88058    0.00001
  0   111     -2.20351    0.00000

  1   108     -4.47893    0.44244
  1   109     -3.98925    0.27657
  1   110     -3.94608    0.22971
  1   111     -3.65200    0.02377


No gap

Forces in eV/Ang:
  0 Ag    0.00631   -0.00369    0.01520
  1 Ag   -0.00640   -0.00370    0.01520
  2 Ag   -0.00005   -0.00003    0.01049
  3 Ag   -0.00004    0.00731    0.01520
  4 Ag    0.01006    0.00581    0.11115
  5 Ag   -0.01006    0.00581    0.11114
  6 Ag   -0.00000   -0.01162    0.11114
  7 Ag    0.00000    0.00000    0.13992
  8 Ag    0.00002    0.00001    0.03097
  9 Ag    0.00001   -0.04309   -0.02692
 10 Ag   -0.03731    0.02156   -0.02692
 11 Ag    0.03735    0.02156   -0.02691
 12 Ag    1.77197   -1.02322   -2.14044
 13 Ag   -1.77183   -1.02297   -2.14038
 14 Ag    0.00001    0.00000   -0.07692
 15 Ag   -0.00015    2.04618   -2.14044
 16 Ag   -0.00523   -0.00302   -0.00834
 17 Ag    0.00529   -0.00302   -0.00813
 18 Ag    0.00003    0.00609   -0.00813
 19 Ag   -0.00001   -0.00001    6.08925

System changes: positions 

Initializing position-dependent things.

Density initialized from wave functions
                                 
                                 
                                 
                                 
                                 
            Ag                   
       Ag     Ag   Ag            
             Ag     Ag           
        Ag     Ag                
                                 
                Ag     Ag        
                                 
           Ag     Ag             
                                 
            Ag     Ag            
       Ag     Ag                 
             Ag     Ag           
        Ag     Ag                
                                 
                                 
                                 
                                 
                                 

Positions:
   0 Ag     0.000001    1.698720   15.000019    ( 0.0000,  0.0000,  0.0000)
   1 Ag     2.942270    1.698720   15.000019    ( 0.0000,  0.0000,  0.0000)
   2 Ag     1.471136    4.246803   15.000020    ( 0.0000,  0.0000,  0.0000)
   3 Ag     4.413407    4.246805   15.000019    ( 0.0000,  0.0000,  0.0000)
   4 Ag     0.000005    0.000003   17.402558    ( 0.0000,  0.0000,  0.0000)
   5 Ag     2.942266    0.000003   17.402558    ( 0.0000,  0.0000,  0.0000)
   6 Ag     1.471136    2.548076   17.402558    ( 0.0000,  0.0000,  0.0000)
   7 Ag     4.413407    2.548082   17.402574    ( 0.0000,  0.0000,  0.0000)
   8 Ag     1.471136    0.849361   19.804734    ( 0.0000,  0.0000,  0.0000)
   9 Ag     4.413407    0.849341   19.804700    ( 0.0000,  0.0000,  0.0000)
  10 Ag     2.942254    3.397452   19.804700    ( 0.0000,  0.0000,  0.0000)
  11 Ag     5.884560    3.397452   19.804700    ( 0.0000,  0.0000,  0.0000)
  12 Ag     0.000460    1.698455   22.206266    ( 0.0000,  0.0000,  0.0000)
  13 Ag     2.941811    1.698455   22.206266    ( 0.0000,  0.0000,  0.0000)
  14 Ag     1.471136    4.246803   22.206877    ( 0.0000,  0.0000,  0.0000)
  15 Ag     4.413407    4.247335   22.206266    ( 0.0000,  0.0000,  0.0000)
  16 Ag    -0.000005   -0.000003   24.609405    ( 0.0000,  0.0000,  0.0000)
  17 Ag     2.942276   -0.000003   24.609406    ( 0.0000,  0.0000,  0.0000)
  18 Ag     1.471136    2.548087   24.609406    ( 0.0000,  0.0000,  0.0000)
  19 Ag     4.413407    2.548082   23.875569    ( 0.0000,  0.0000,  0.0000)

Unit cell:
           periodic     x           y           z      points  spacing
  1. axis:    yes    5.884543    0.000000    0.000000    32     0.1593
  2. axis:    yes    2.942271    5.096163    0.000000    32     0.1593
  3. axis:    no     0.000000    0.000000   39.609418   192     0.2063

  Lengths:   5.884543   5.884543  39.609418
  Angles:   90.000000  90.000000  60.000000

Effective grid spacing dv^(1/3) = 0.1821

                     log10-error:    total        iterations:
           time      wfs    density  energy       fermi  poisson
iter:   1  15:02:56                 -41.089615    3      1      
iter:   2  15:03:01         -2.75   -41.111109    3      1      
iter:   3  15:03:05         -2.61   -41.071516    2      1      
iter:   4  15:03:09         -3.50   -41.070987    3      1      
iter:   5  15:03:13         -3.64   -41.070702    3      1      
iter:   6  15:03:18         -3.74   -41.070426    3      1      
iter:   7  15:03:22         -3.98   -41.070401    2      1      
iter:   8  15:03:26         -4.08   -41.070356    2      1      
iter:   9  15:03:30         -4.31   -41.070295    2      1      
iter:  10  15:03:34         -4.37   -41.070295    2      1      
iter:  11  15:03:39         -4.50   -41.070293    2      1      
iter:  12  15:03:43         -4.50   -41.070313    2      1      
iter:  13  15:03:47         -4.75   -41.070324    2      1      
iter:  14  15:03:51         -4.97   -41.070322    2      1      
iter:  15  15:03:55         -5.05   -41.070314    2      1      

Converged after 15 iterations.

Dipole moment: (6.494720, 3.749728, 0.002679) |e|*Ang

Energy contributions relative to reference atoms: (reference = -2891956.527156)

Kinetic:        -92.293009
Potential:      +84.432991
External:        +0.000000
XC:             -34.329413
Entropy (-ST):   -0.257580
Local:           +1.247907
--------------------------
Free energy:    -41.199104
Extrapolated:   -41.070314

Dipole-layer corrected work functions: 3.947202, 3.931037 eV

Fermi level: -3.93912

Showing only first 2 kpts
 Kpt  Band  Eigenvalues  Occupancy
  0   108     -2.89663    0.00001
  0   109     -2.87799    0.00001
  0   110     -2.87797    0.00001
  0   111     -2.23536    0.00000

  1   108     -4.48087    0.44248
  1   109     -3.99536    0.28312
  1   110     -3.94589    0.22974
  1   111     -3.64137    0.02153


No gap

Forces in eV/Ang:
  0 Ag    0.00735   -0.00430    0.01615
  1 Ag   -0.00744   -0.00430    0.01615
  2 Ag   -0.00005   -0.00003    0.00978
  3 Ag   -0.00004    0.00852    0.01615
  4 Ag    0.01101    0.00635    0.10925
  5 Ag   -0.01101    0.00635    0.10924
  6 Ag   -0.00000   -0.01271    0.10924
  7 Ag    0.00000    0.00000    0.14015
  8 Ag    0.00002    0.00001    0.03188
  9 Ag    0.00001   -0.04802   -0.03074
 10 Ag   -0.04158    0.02402   -0.03074
 11 Ag    0.04162    0.02403   -0.03074
 12 Ag    2.27016   -1.31087   -2.61448
 13 Ag   -2.26998   -1.31058   -2.61439
 14 Ag    0.00001    0.00001   -0.07082
 15 Ag   -0.00017    2.62145   -2.61448
 16 Ag   -0.00464   -0.00268   -0.01152
 17 Ag    0.00470   -0.00267   -0.01132
 18 Ag    0.00003    0.00540   -0.01132
 19 Ag   -0.00004   -0.00002    7.51926

System changes: positions 

Initializing position-dependent things.

Density initialized from wave functions
                                 
                                 
                                 
                                 
                                 
            Ag                   
       Ag     Ag   Ag            
             Ag     Ag           
        Ag     Ag                
                                 
                Ag     Ag        
                                 
           Ag     Ag             
                                 
            Ag     Ag            
       Ag     Ag                 
             Ag     Ag           
        Ag     Ag                
                                 
                                 
                                 
                                 
                                 

Positions:
   0 Ag     0.000002    1.698720   15.000023    ( 0.0000,  0.0000,  0.0000)
   1 Ag     2.942269    1.698720   15.000023    ( 0.0000,  0.0000,  0.0000)
   2 Ag     1.471136    4.246803   15.000023    ( 0.0000,  0.0000,  0.0000)
   3 Ag     4.413407    4.246805   15.000023    ( 0.0000,  0.0000,  0.0000)
   4 Ag     0.000006    0.000004   17.402592    ( 0.0000,  0.0000,  0.0000)
   5 Ag     2.942265    0.000004   17.402592    ( 0.0000,  0.0000,  0.0000)
   6 Ag     1.471136    2.548074   17.402592    ( 0.0000,  0.0000,  0.0000)
   7 Ag     4.413407    2.548082   17.402612    ( 0.0000,  0.0000,  0.0000)
   8 Ag     1.471136    0.849361   19.804740    ( 0.0000,  0.0000,  0.0000)
   9 Ag     4.413407    0.849335   19.804696    ( 0.0000,  0.0000,  0.0000)
  10 Ag     2.942249    3.397455   19.804696    ( 0.0000,  0.0000,  0.0000)
  11 Ag     5.884565    3.397455   19.804696    ( 0.0000,  0.0000,  0.0000)
  12 Ag     0.000657    1.698342   22.205996    ( 0.0000,  0.0000,  0.0000)
  13 Ag     2.941615    1.698342   22.205996    ( 0.0000,  0.0000,  0.0000)
  14 Ag     1.471136    4.246803   22.206848    ( 0.0000,  0.0000,  0.0000)
  15 Ag     4.413407    4.247561   22.205996    ( 0.0000,  0.0000,  0.0000)
  16 Ag    -0.000006   -0.000003   24.609403    ( 0.0000,  0.0000,  0.0000)
  17 Ag     2.942277   -0.000003   24.609403    ( 0.0000,  0.0000,  0.0000)
  18 Ag     1.471136    2.548089   24.609403    ( 0.0000,  0.0000,  0.0000)
  19 Ag     4.413407    2.548082   23.809400    ( 0.0000,  0.0000,  0.0000)

Unit cell:
           periodic     x           y           z      points  spacing
  1. axis:    yes    5.884543    0.000000    0.000000    32     0.1593
  2. axis:    yes    2.942271    5.096163    0.000000    32     0.1593
  3. axis:    no     0.000000    0.000000   39.609418   192     0.2063

  Lengths:   5.884543   5.884543  39.609418
  Angles:   90.000000  90.000000  60.000000

Effective grid spacing dv^(1/3) = 0.1821

                     log10-error:    total        iterations:
           time      wfs    density  energy       fermi  poisson
iter:   1  15:04:24                 -40.547719    3      1      
iter:   2  15:04:28         -2.73   -40.570827    3      1      
iter:   3  15:04:33         -2.59   -40.526983    2      1      
iter:   4  15:04:37         -3.46   -40.526310    3      1      
iter:   5  15:04:41         -3.59   -40.525887    3      1      
iter:   6  15:04:45         -3.70   -40.525589    3      1      
iter:   7  15:04:50         -3.95   -40.525550    2      1      
iter:   8  15:04:54         -4.04   -40.525473    2      1      
iter:   9  15:04:58         -4.28   -40.525423    2      1      
iter:  10  15:05:02         -4.41   -40.525438    2      1      
iter:  11  15:05:07         -4.52   -40.525434    2      1      
iter:  12  15:05:11         -4.52   -40.525449    2      1      
iter:  13  15:05:15         -4.81   -40.525454    2      1      
iter:  14  15:05:19         -5.09   -40.525454    2      1      

Converged after 14 iterations.

Dipole moment: (6.499721, 3.752616, 0.003211) |e|*Ang

Energy contributions relative to reference atoms: (reference = -2891956.527156)

Kinetic:        -82.160749
Potential:      +75.693889
External:        +0.000000
[...]

  Lengths:   5.884543   5.884543  39.609418
  Angles:   90.000000  90.000000  60.000000

Effective grid spacing dv^(1/3) = 0.1821

                     log10-error:    total        iterations:
           time      wfs    density  energy       fermi  poisson
iter:   1  16:46:42                   8.900758    3      1      
iter:   2  16:46:47         -2.79     8.902128    3      1      
iter:   3  16:46:51         -2.76     8.917976    3      1      
iter:   4  16:46:56         -3.37     8.919023    2      1      
iter:   5  16:47:00         -3.64     8.919058    2      1      
iter:   6  16:47:05         -3.68     8.919142    2      1      
iter:   7  16:47:09         -3.98     8.919168    3      1      
iter:   8  16:47:14         -4.19     8.919190    2      1      
iter:   9  16:47:18         -4.26     8.919154    2      1      
iter:  10  16:47:23         -4.35     8.919201    2      1      
iter:  11  16:47:27         -4.67     8.919198    2      1      
iter:  12  16:47:32         -4.79     8.919198    2      1      
iter:  13  16:47:37         -4.87     8.919200    2      1      
iter:  14  16:47:41         -5.10     8.919201    2      1      

Converged after 14 iterations.

Dipole moment: (3.260248, 1.882305, 0.047434) |e|*Ang

Energy contributions relative to reference atoms: (reference = -2891956.527156)

Kinetic:       +655.732743
Potential:     -556.433789
External:        +0.000000
XC:             -93.273724
Entropy (-ST):   -0.286756
Local:           +3.037350
--------------------------
Free energy:     +8.775823
Extrapolated:    +8.919201

Dipole-layer corrected work functions: 3.972062, 3.685835 eV

Fermi level: -3.82895

Showing only first 2 kpts
 Kpt  Band  Eigenvalues  Occupancy
  0   108     -3.57720    0.01659
  0   109     -2.98718    0.00005
  0   110     -2.65340    0.00000
  0   111     -2.65338    0.00000

  1   108     -4.69532    0.44437
  1   109     -3.91843    0.31550
  1   110     -3.76564    0.15413
  1   111     -3.68795    0.08722


No gap

Forces in eV/Ang:
  0 Ag   -0.03880    0.02234    0.00067
  1 Ag    0.03872    0.02236    0.00066
  2 Ag   -0.00004   -0.00002   -0.07989
  3 Ag   -0.00005   -0.04478    0.00067
  4 Ag    0.03942    0.02276   -0.21299
  5 Ag   -0.03942    0.02275   -0.21293
  6 Ag   -0.00001   -0.04551   -0.21293
  7 Ag    0.00000    0.00000   -0.72065
  8 Ag    0.00015    0.00009   -6.89330
  9 Ag    0.00015  -27.85808   -7.64372
 10 Ag  -24.12573   13.92917   -7.64372
 11 Ag   24.12567   13.92897   -7.64372
 12 Ag  -54.63397   31.54418    2.52110
 13 Ag   54.63306   31.54241    2.52165
 14 Ag   -0.00033   -0.00019    0.22925
 15 Ag    0.00108  -63.08649    2.52110
 16 Ag   -0.10896   -0.06291   -0.12214
 17 Ag    0.10897   -0.06289   -0.12225
 18 Ag    0.00002    0.12582   -0.12225
 19 Ag   -0.00006   -0.00003   23.88386

System changes: positions 

Initializing position-dependent things.

Density initialized from wave functions
                                  
                                  
                                  
                                  
                                  
            Ag                    
       Ag      Ag                 
             Ag      Ag           
                                  
         Ag   Ag                  
                    Ag            
                Ag      Ag        
           Ag      Ag             
                                  
            Ag      Ag            
       Ag      Ag                 
             Ag      Ag           
        Ag     Ag                 
                                  
                                  
                                  
                                  
                                  

Positions:
   0 Ag     0.001464    1.697872   15.001294    ( 0.0000,  0.0000,  0.0000)
   1 Ag     2.940801    1.697872   15.001293    ( 0.0000,  0.0000,  0.0000)
   2 Ag     1.471132    4.246801   14.999740    ( 0.0000,  0.0000,  0.0000)
   3 Ag     4.413404    4.248495   15.001294    ( 0.0000,  0.0000,  0.0000)
   4 Ag     0.000554    0.000320   17.409876    ( 0.0000,  0.0000,  0.0000)
   5 Ag     2.941717    0.000320   17.409876    ( 0.0000,  0.0000,  0.0000)
   6 Ag     1.471135    2.547442   17.409876    ( 0.0000,  0.0000,  0.0000)
   7 Ag     4.413407    2.548082   17.411210    ( 0.0000,  0.0000,  0.0000)
   8 Ag     1.471138    0.849362   19.743803    ( 0.0000,  0.0000,  0.0000)
   9 Ag     4.413410    0.747795   19.734983    ( 0.0000,  0.0000,  0.0000)
  10 Ag     2.854314    3.448228   19.734983    ( 0.0000,  0.0000,  0.0000)
  11 Ag     5.972498    3.448223   19.734985    ( 0.0000,  0.0000,  0.0000)
  12 Ag     0.561182    1.374720   21.999759    ( 0.0000,  0.0000,  0.0000)
  13 Ag     2.381095    1.374726   21.999768    ( 0.0000,  0.0000,  0.0000)
  14 Ag     1.471132    4.246801   22.211017    ( 0.0000,  0.0000,  0.0000)
  15 Ag     4.413405    4.894801   21.999759    ( 0.0000,  0.0000,  0.0000)
  16 Ag    -0.000834   -0.000482   24.602648    ( 0.0000,  0.0000,  0.0000)
  17 Ag     2.943108   -0.000481   24.602649    ( 0.0000,  0.0000,  0.0000)
  18 Ag     1.471138    2.549047   24.602649    ( 0.0000,  0.0000,  0.0000)
  19 Ag     4.413408    2.548083   20.202390    ( 0.0000,  0.0000,  0.0000)

Unit cell:
           periodic     x           y           z      points  spacing
  1. axis:    yes    5.884543    0.000000    0.000000    32     0.1593
  2. axis:    yes    2.942271    5.096163    0.000000    32     0.1593
  3. axis:    no     0.000000    0.000000   39.609418   192     0.2063

  Lengths:   5.884543   5.884543  39.609418
  Angles:   90.000000  90.000000  60.000000

Effective grid spacing dv^(1/3) = 0.1821

                     log10-error:    total        iterations:
           time      wfs    density  energy       fermi  poisson
iter:   1  16:48:12                   8.238238    3      1      
iter:   2  16:48:17         -2.80     8.239541    3      1      
iter:   3  16:48:21         -2.77     8.254926    3      1      
iter:   4  16:48:26         -3.34     8.256206    3      1      
iter:   5  16:48:30         -3.63     8.256277    2      1      
iter:   6  16:48:35         -3.68     8.256377    3      1      
iter:   7  16:48:39         -3.94     8.256412    3      1      
iter:   8  16:48:44         -4.17     8.256436    2      1      
iter:   9  16:48:49         -4.21     8.256392    2      1      
iter:  10  16:48:53         -4.23     8.256452    2      1      
iter:  11  16:48:58         -4.61     8.256450    2      1      
iter:  12  16:49:02         -4.73     8.256449    2      1      
iter:  13  16:49:07         -4.83     8.256452    2      1      
iter:  14  16:49:11         -5.12     8.256456    2      1      

Converged after 14 iterations.

Dipole moment: (3.303094, 1.907043, 0.046656) |e|*Ang

Energy contributions relative to reference atoms: (reference = -2891956.527156)

Kinetic:       +648.666839
Potential:     -550.482544
External:        +0.000000
XC:             -92.789115
Entropy (-ST):   -0.284912
Local:           +3.003731
--------------------------
Free energy:     +8.114000
Extrapolated:    +8.256456

Dipole-layer corrected work functions: 3.970793, 3.689264 eV

Fermi level: -3.83003

Showing only first 2 kpts
 Kpt  Band  Eigenvalues  Occupancy
  0   108     -3.57688    0.01637
  0   109     -2.99340    0.00005
  0   110     -2.64941    0.00000
  0   111     -2.64938    0.00000

  1   108     -4.68461    0.44436
  1   109     -3.92217    0.31793
  1   110     -3.76511    0.15252
  1   111     -3.68806    0.08654


No gap

Forces in eV/Ang:
  0 Ag   -0.03979    0.02291    0.00170
  1 Ag    0.03971    0.02293    0.00169
  2 Ag   -0.00004   -0.00002   -0.07770
  3 Ag   -0.00005   -0.04591    0.00170
  4 Ag    0.04775    0.02757   -0.24825
  5 Ag   -0.04774    0.02755   -0.24819
  6 Ag   -0.00001   -0.05512   -0.24819
  7 Ag    0.00000    0.00000   -0.83762
  8 Ag    0.00015    0.00009   -6.74898
  9 Ag    0.00015  -27.90298   -7.04458
 10 Ag  -24.16461   13.95162   -7.04458
 11 Ag   24.16459   13.95143   -7.04459
 12 Ag  -53.43016   30.84911    2.46197
 13 Ag   53.42931   30.84743    2.46252
 14 Ag   -0.00033   -0.00019    0.23395
 15 Ag    0.00103  -61.69643    2.46197
 16 Ag   -0.10472   -0.06046   -0.12537
 17 Ag    0.10474   -0.06045   -0.12548
 18 Ag    0.00002    0.12093   -0.12548
 19 Ag   -0.00011   -0.00006   22.34196

System changes: positions 

Initializing position-dependent things.

Density initialized from wave functions
                                  
                                  
                                  
                                  
                                  
            Ag                    
       Ag      Ag                 
             Ag      Ag           
                                  
         Ag   Ag                  
                    Ag            
                Ag      Ag        
           Ag      Ag             
                                  
            Ag      Ag            
       Ag      Ag                 
             Ag      Ag           
        Ag     Ag                 
                                  
                                  
                                  
                                  
                                  

Positions:
   0 Ag     0.001498    1.697853   15.001317    ( 0.0000,  0.0000,  0.0000)
   1 Ag     2.940767    1.697853   15.001316    ( 0.0000,  0.0000,  0.0000)
   2 Ag     1.471132    4.246801   14.999696    ( 0.0000,  0.0000,  0.0000)
   3 Ag     4.413404    4.248534   15.001317    ( 0.0000,  0.0000,  0.0000)
   4 Ag     0.000567    0.000327   17.410013    ( 0.0000,  0.0000,  0.0000)
   5 Ag     2.941704    0.000327   17.410012    ( 0.0000,  0.0000,  0.0000)
   6 Ag     1.471135    2.547427   17.410012    ( 0.0000,  0.0000,  0.0000)
   7 Ag     4.413407    2.548082   17.411269    ( 0.0000,  0.0000,  0.0000)
   8 Ag     1.471138    0.849362   19.739689    ( 0.0000,  0.0000,  0.0000)
   9 Ag     4.413411    0.737648   19.729890    ( 0.0000,  0.0000,  0.0000)
  10 Ag     2.845527    3.453302   19.729890    ( 0.0000,  0.0000,  0.0000)
  11 Ag     5.981285    3.453297   19.729892    ( 0.0000,  0.0000,  0.0000)
  12 Ag     0.556692    1.377313   21.997706    ( 0.0000,  0.0000,  0.0000)
  13 Ag     2.385585    1.377318   21.997715    ( 0.0000,  0.0000,  0.0000)
  14 Ag     1.471132    4.246801   22.211243    ( 0.0000,  0.0000,  0.0000)
  15 Ag     4.413405    4.889616   21.997706    ( 0.0000,  0.0000,  0.0000)
  16 Ag    -0.000910   -0.000525   24.602436    ( 0.0000,  0.0000,  0.0000)
  17 Ag     2.943184   -0.000524   24.602438    ( 0.0000,  0.0000,  0.0000)
  18 Ag     1.471138    2.549134   24.602438    ( 0.0000,  0.0000,  0.0000)
  19 Ag     4.413409    2.548083   20.161051    ( 0.0000,  0.0000,  0.0000)

Unit cell:
           periodic     x           y           z      points  spacing
  1. axis:    yes    5.884543    0.000000    0.000000    32     0.1593
  2. axis:    yes    2.942271    5.096163    0.000000    32     0.1593
  3. axis:    no     0.000000    0.000000   39.609418   192     0.2063

  Lengths:   5.884543   5.884543  39.609418
  Angles:   90.000000  90.000000  60.000000

Effective grid spacing dv^(1/3) = 0.1821

                     log10-error:    total        iterations:
           time      wfs    density  energy       fermi  poisson
iter:   1  16:49:42                   7.218348    3      1      
iter:   2  16:49:47         -2.79     7.219598    3      1      
iter:   3  16:49:52         -2.76     7.235252    3      1      
iter:   4  16:49:56         -3.31     7.236919    3      1      
iter:   5  16:50:01         -3.62     7.237047    3      1      
iter:   6  16:50:05         -3.68     7.237165    3      1      
iter:   7  16:50:10         -3.90     7.237217    3      1      
iter:   8  16:50:14         -4.14     7.237246    2      1      
iter:   9  16:50:19         -4.17     7.237197    2      1      
iter:  10  16:50:23         -4.16     7.237266    2      1      
iter:  11  16:50:28         -4.57     7.237264    2      1      
iter:  12  16:50:33         -4.69     7.237265    2      1      
iter:  13  16:50:37         -4.82     7.237269    2      1      
iter:  14  16:50:42         -5.12     7.237274    2      1      

Converged after 14 iterations.

Dipole moment: (3.391447, 1.958053, 0.045789) |e|*Ang

Energy contributions relative to reference atoms: (reference = -2891956.527156)

Kinetic:       +637.284651
Potential:     -540.864749
External:        +0.000000
XC:             -91.993218
Entropy (-ST):   -0.282971
Local:           +2.952076
--------------------------
Free energy:     +7.095788
Extrapolated:    +7.237274

Dipole-layer corrected work functions: 3.969168, 3.692870 eV

Fermi level: -3.83102

Showing only first 2 kpts
 Kpt  Band  Eigenvalues  Occupancy
  0   108     -3.57491    0.01593
  0   109     -2.99912    0.00005
  0   110     -2.64740    0.00000
  0   111     -2.64736    0.00000

  1   108     -4.67432    0.44435
  1   109     -3.92601    0.32048
  1   110     -3.76433    0.15075
  1   111     -3.68803    0.08583


No gap

Forces in eV/Ang:
  0 Ag   -0.04046    0.02330    0.00303
  1 Ag    0.04038    0.02331    0.00302
  2 Ag   -0.00004   -0.00002   -0.07509
  3 Ag   -0.00005   -0.04668    0.00303
  4 Ag    0.05690    0.03285   -0.28565
  5 Ag   -0.05689    0.03283   -0.28559
  6 Ag   -0.00001   -0.06568   -0.28559
  7 Ag   -0.00000   -0.00000   -0.97198
  8 Ag    0.00016    0.00009   -6.57608
  9 Ag    0.00015  -27.76734   -6.41122
 10 Ag  -24.04715   13.88380   -6.41122
 11 Ag   24.04715   13.88363   -6.41124
 12 Ag  -51.82135   29.92021    2.39489
 13 Ag   51.82054   29.91860    2.39543
 14 Ag   -0.00033   -0.00019    0.23957
 15 Ag    0.00099  -59.83871    2.39489
 16 Ag   -0.10020   -0.05785   -0.12867
 17 Ag    0.10021   -0.05784   -0.12877
 18 Ag    0.00002    0.11571   -0.12877
 19 Ag   -0.00015   -0.00009   20.70706

Timing:                                       incl.     excl.
--------------------------------------------------------------------
Basic WFS set positions:                      0.136     0.065   0.0% |
 Redistribute:                                0.071     0.071   0.0% |
Basis functions set positions:                6.666     6.666   0.1% |
Forces:                                    1972.632    39.467   0.5% |
 LCAO forces:                              1933.165     0.060   0.0% |
  Complicated loop:                          44.864    44.864   0.6% |
  Get density matrix:                      1865.009  1865.009  25.1% |---------|
  Initial:                                    0.000     0.000   0.0% |
  Not so complicated loop:                   21.707    21.707   0.3% |
  Potential:                                  1.443     1.443   0.0% |
  Prepare TCI loop:                           0.081     0.052   0.0% |
   broadcast dH:                              0.028     0.028   0.0% |
  Wait for sum:                               0.001     0.001   0.0% |
LCAO WFS Initialize:                        271.304     0.037   0.0% |
 Density initialized from wave functions:   236.677    47.401   0.6% |
  Calculate density matrix:                 189.271   189.271   2.5% ||
  Construct density:                          0.003     0.003   0.0% |
  Symmetrize density:                         0.001     0.001   0.0% |
 Hamiltonian:                                34.590     0.007   0.0% |
  Atomic:                                     7.131     0.051   0.0% |
   XC Correction:                             7.080     7.080   0.1% |
  Calculate atomic Hamiltonians:              0.719     0.719   0.0% |
  Communicate:                                7.195     7.195   0.1% |
  Hartree integrate/restrict:                 0.212     0.212   0.0% |
  Initialize Hamiltonian:                     0.000     0.000   0.0% |
  Poisson:                                    9.123     4.266   0.1% |
   Communicate from 1D:                       1.215     1.215   0.0% |
   Communicate from 2D:                       0.940     0.940   0.0% |
   Communicate to 1D:                         0.403     0.403   0.0% |
   Communicate to 2D:                         1.131     1.131   0.0% |
   FFT 1D:                                    0.671     0.671   0.0% |
   FFT 2D:                                    0.496     0.496   0.0% |
  XC 3D grid:                                10.149    10.149   0.1% |
  vbar:                                       0.054     0.054   0.0% |
P tci:                                        0.067     0.067   0.0% |
Redistribute:                                 0.023     0.023   0.0% |
SCF-cycle:                                 5104.157     2.275   0.0% |
 Density:                                  3388.561     0.026   0.0% |
  Atomic density matrices:                  673.804   673.804   9.1% |---|
  Mix:                                        5.244     5.244   0.1% |
  Multipole moments:                          0.293     0.293   0.0% |
  Normalize:                                  0.154     0.154   0.0% |
  Pseudo density:                          2709.041     0.192   0.0% |
   Calculate density matrix:               2708.784  2708.784  36.5% |--------------|
   Construct density:                         0.048     0.048   0.0% |
   Symmetrize density:                        0.017     0.017   0.0% |
 Hamiltonian:                               482.292     0.095   0.0% |
  Atomic:                                   100.790     0.687   0.0% |
   XC Correction:                           100.103   100.103   1.3% ||
  Calculate atomic Hamiltonians:              9.608     9.608   0.1% |
  Communicate:                              101.286   101.286   1.4% ||
  Hartree integrate/restrict:                 3.046     3.046   0.0% |
  Poisson:                                  124.118    58.790   0.8% |
   Communicate from 1D:                      15.527    15.527   0.2% |
   Communicate from 2D:                      13.081    13.081   0.2% |
   Communicate to 1D:                         5.032     5.032   0.1% |
   Communicate to 2D:                        15.243    15.243   0.2% |
   FFT 1D:                                    9.447     9.447   0.1% |
   FFT 2D:                                    6.998     6.998   0.1% |
  XC 3D grid:                               142.654   142.654   1.9% ||
  vbar:                                       0.695     0.695   0.0% |
 LCAO eigensolver:                         1231.029     0.585   0.0% |
  Blacs Orbital Layouts:                    190.685     0.223   0.0% |
   General diagonalize:                     185.454   185.454   2.5% ||
   Redistribute coefs:                        2.050     2.050   0.0% |
   Send coefs to domains:                     2.959     2.959   0.0% |
  Calculate projections:                      2.864     2.864   0.0% |
  Distribute overlap matrix:               1024.546     0.365   0.0% |
   Scalapack redistribute:                    6.130     6.130   0.1% |
   blocked summation:                      1018.050  1018.050  13.7% |----|
  Potential matrix:                           0.168     0.168   0.0% |
  SparseAtomicCorrection:                     9.984     9.984   0.1% |
  Sum over cells:                             2.197     2.197   0.0% |
ST tci:                                       5.055     5.055   0.1% |
Scalapack redistribute:                       0.459     0.459   0.0% |
Set symmetry:                                 0.001     0.001   0.0% |
TCI: Evaluate splines:                        0.126     0.126   0.0% |
blocked summation:                           42.717    42.717   0.6% |
mktci:                                        4.400     4.400   0.1% |
Other:                                       21.144    21.144   0.3% |
--------------------------------------------------------------------
Total:                                               7428.888 100.0%

Date: Tue Oct 24 16:51:07 2023
