
  ___ ___ ___ _ _ _  
 |   |   |_  | | | | 
 | | | | | . | | | | 
 |__ |  _|___|_____|  1.4.0
 |___|_|             

User:   romanov_av@node10
Date:   Sat Jun  1 08:26:42 2019
Arch:   x86_64
Pid:    256841
Python: 3.6.8
gpaw:   /home/romanov_av/bin/gcc-4.8.5/openmpi-3.0.3/gpaw-1.4.0/lib/python3.6/site-packages/gpaw
_gpaw:  /home/romanov_av/bin/gcc-4.8.5/openmpi-3.0.3/gpaw-1.4.0/bin/gpaw-python
ase:    /home/romanov_av/bin/gcc-4.8.5/openmpi-3.0.3/ase-3.16.2/lib/python3.6/site-packages/ase-3.16.2-py3.6.egg/ase (version 3.16.2)
numpy:  /beegfs/home/romanov_av/bin/gcc-4.8.5/openmpi-3.0.3/numpy-1.15.4/lib/python3.6/site-packages/numpy-1.15.4-py3.6-linux-x86_64.egg/numpy (version 1.15.4)
scipy:  /beegfs/home/romanov_av/bin/gcc-4.8.5/openmpi-3.0.3/scipy-1.1.0/lib/python3.6/site-packages/scipy-1.1.0-py3.6-linux-x86_64.egg/scipy (version 1.1.0)
units:  Angstrom and eV
cores:  4

System changes: positions, numbers, cell, pbc, initial_charges, initial_magmoms 

Initialize ...

Cu-setup:
  name: Copper
  id: f1c4d45d90492f1bbfdcb091e8418fdf
  Z: 29
  valence: 11
  core: 18
  charge: 0.0
  file: /home/romanov_av/bin/gcc-4.8.5/openmpi-3.0.3/gpaw-setups-0.9.20000/Cu.PBE.gz
  cutoffs: 1.06(comp), 2.06(filt), 2.43(core), lmax=2
  valence states:
                energy  radius
    4s(1.00)    -4.609   1.164
    4p(0.00)    -0.698   1.164
    3d(10.00)    -5.039   1.058
    *s          22.603   1.164
    *p          26.513   1.164
    *d          22.172   1.058

  LCAO basis set for Cu:
    Name: dzp
    File: /home/romanov_av/bin/gcc-4.8.5/openmpi-3.0.3/gpaw-setups-0.9.20000/Cu.dzp.basis.gz
    Number of radial functions: 5
    Number of spherical harmonics: 15
      l=0, rc=8.9688 Bohr: 4s-sz confined orbital
      l=2, rc=5.1719 Bohr: 3d-sz confined orbital
      l=0, rc=5.3281 Bohr: 4s-dz split-valence wave
      l=2, rc=3.1406 Bohr: 3d-dz split-valence wave
      l=1, rc=8.9688 Bohr: p-type Gaussian polarization

Reference energy: -2025965.332850

Spin-paired calculation

Occupation numbers:
  Fermi-Dirac: width=0.1000 eV

Convergence criteria:
  Maximum total energy change: 0.0005 eV / electron
  Maximum integral of absolute density change: 0.0001 electrons
  Maximum integral of absolute eigenstate change: 4e-08 eV^2
  Maximum number of iterations: 333

Symmetries present (total): 1

  ( 1  0  0)
  ( 0  1  0)
  ( 0  0  1)

9 k-points: 3 x 3 x 1 Monkhorst-Pack grid
5 k-points in the irreducible part of the Brillouin zone
       k-points in crystal coordinates                weights
   0:     0.00000000    0.00000000    0.00000000          1/9
   1:     0.00000000    0.33333333    0.00000000          2/9
   2:     0.33333333   -0.33333333    0.00000000          2/9
   3:     0.33333333    0.00000000    0.00000000          2/9
   4:     0.33333333    0.33333333    0.00000000          2/9

Wave functions: LCAO
  Diagonalizer: BLACS 2 x 1 grid with 64 x 64 blocksize
  Atomic Correction: distributed and block-sparse
  Datatype: complex
 

Eigensolver
   LCAO using direct dense diagonalizer 

Densities:
  Coarse grid: 32*32*192 grid
  Fine grid: 64*64*384 grid
  Total Charge: 0.000000 

Density mixing:
  Method: separate
  Backend: pulay
  Linear mixing parameter: 0.05
  Mixing with 5 old densities
  Damping of long wave oscillations: 50 

Hamiltonian:
  XC and Coulomb potentials evaluated on a 64*64*384 grid
  Using the PBE Exchange-Correlation functional
  Interpolation: tri-quintic (5. degree polynomial)
  Poisson solver: Jacobi solver with 7 multi-grid levels
    Coarsest grid: 1 x 1 x 6 points
    Stencil: 8*3+1=25 point O(h^6) finite-difference Laplacian
    Max iterations: 1000
    Tolerance: 1.000000e-12
Dipole correction along z-axis 

Memory estimate:
  Process memory now: 89.78 MiB
  Calculator: 189.35 MiB
    Density: 92.67 MiB
      Arrays: 19.39 MiB
      Localized functions: 65.86 MiB
      Mixer: 7.42 MiB
    Hamiltonian: 32.14 MiB
      Arrays: 12.68 MiB
      XC: 0.00 MiB
      Poisson: 14.50 MiB
      vbar: 4.96 MiB
    Wavefunctions: 64.54 MiB
      C [qnM]: 8.34 MiB
      S, T [2 x qmm]: 14.63 MiB
      P [aqMi]: 0.52 MiB
      TCI: 0.00 MiB
      BasisFunctions: 41.05 MiB
      Eigensolver: 0.00 MiB

Total number of cores used: 4
Parallelization over k-points: 2
Domain decomposition: 1 x 1 x 2

Number of atoms: 45
Number of atomic orbitals: 675
Number of bands in calculation: 405
Bands to converge: occupied states only
Number of valence electrons: 495
... initialized

Initializing position-dependent things.

Density initialized from atomic densities
                                          
                                          
                                          
                                          
                                          
                Cu    Cu     Cu           
            Cu   CCu   CCu    Cu          
       Cu    Cu     Cu                    
             Cu    Cu    Cu               
        Cu    Cu    CCu   Cu    Cu        
               Cu     Cu    Cu            
                                          
           Cu   CCu   CCu    Cu           
            Cu    Cu    Cu                
                 Cu    Cu     Cu          
       Cu    Cu    CCu   Cu               
        Cu    Cu     Cu                   
                                          
                                          
                                          
                                          
                                          

Positions:
   0 Cu     0.000000    1.485616   15.000000    ( 0.0000,  0.0000,  0.0000)
   1 Cu     2.573162    1.485616   15.000000    ( 0.0000,  0.0000,  0.0000)
   2 Cu     5.146323    1.485616   15.000000    ( 0.0000,  0.0000,  0.0000)
   3 Cu     1.286581    3.714039   15.000000    ( 0.0000,  0.0000,  0.0000)
   4 Cu     3.859742    3.714039   15.000000    ( 0.0000,  0.0000,  0.0000)
   5 Cu     6.432904    3.714039   15.000000    ( 0.0000,  0.0000,  0.0000)
   6 Cu     2.573162    5.942462   15.000000    ( 0.0000,  0.0000,  0.0000)
   7 Cu     5.146323    5.942462   15.000000    ( 0.0000,  0.0000,  0.0000)
   8 Cu     7.719485    5.942462   15.000000    ( 0.0000,  0.0000,  0.0000)
   9 Cu     0.000000    0.000000   17.100978    ( 0.0000,  0.0000,  0.0000)
  10 Cu     2.573162    0.000000   17.100978    ( 0.0000,  0.0000,  0.0000)
  11 Cu     5.146323    0.000000   17.100978    ( 0.0000,  0.0000,  0.0000)
  12 Cu     1.286581    2.228423   17.100978    ( 0.0000,  0.0000,  0.0000)
  13 Cu     3.859742    2.228423   17.100978    ( 0.0000,  0.0000,  0.0000)
  14 Cu     6.432904    2.228423   17.100978    ( 0.0000,  0.0000,  0.0000)
  15 Cu     2.573162    4.456847   17.100978    ( 0.0000,  0.0000,  0.0000)
  16 Cu     5.146323    4.456847   17.100978    ( 0.0000,  0.0000,  0.0000)
  17 Cu     7.719485    4.456847   17.100978    ( 0.0000,  0.0000,  0.0000)
  18 Cu     1.286581    0.742808   19.201955    ( 0.0000,  0.0000,  0.0000)
  19 Cu     3.859742    0.742808   19.201955    ( 0.0000,  0.0000,  0.0000)
  20 Cu     6.432904    0.742808   19.201955    ( 0.0000,  0.0000,  0.0000)
  21 Cu     2.573162    2.971231   19.201955    ( 0.0000,  0.0000,  0.0000)
  22 Cu     5.146323    2.971231   19.201955    ( 0.0000,  0.0000,  0.0000)
  23 Cu     7.719485    2.971231   19.201955    ( 0.0000,  0.0000,  0.0000)
  24 Cu     3.859742    5.199654   19.201955    ( 0.0000,  0.0000,  0.0000)
  25 Cu     6.432904    5.199654   19.201955    ( 0.0000,  0.0000,  0.0000)
  26 Cu     9.006066    5.199654   19.201955    ( 0.0000,  0.0000,  0.0000)
  27 Cu     0.000000    1.485616   21.302933    ( 0.0000,  0.0000,  0.0000)
  28 Cu     2.573162    1.485616   21.302933    ( 0.0000,  0.0000,  0.0000)
  29 Cu     5.146323    1.485616   21.302933    ( 0.0000,  0.0000,  0.0000)
  30 Cu     1.286581    3.714039   21.302933    ( 0.0000,  0.0000,  0.0000)
  31 Cu     3.859742    3.714039   21.302933    ( 0.0000,  0.0000,  0.0000)
  32 Cu     6.432904    3.714039   21.302933    ( 0.0000,  0.0000,  0.0000)
  33 Cu     2.573162    5.942462   21.302933    ( 0.0000,  0.0000,  0.0000)
  34 Cu     5.146323    5.942462   21.302933    ( 0.0000,  0.0000,  0.0000)
  35 Cu     7.719485    5.942462   21.302933    ( 0.0000,  0.0000,  0.0000)
  36 Cu     0.000000    0.000000   23.403911    ( 0.0000,  0.0000,  0.0000)
  37 Cu     2.573162    0.000000   23.403911    ( 0.0000,  0.0000,  0.0000)
  38 Cu     5.146323    0.000000   23.403911    ( 0.0000,  0.0000,  0.0000)
  39 Cu     1.286581    2.228423   23.403911    ( 0.0000,  0.0000,  0.0000)
  40 Cu     3.859742    2.228423   23.403911    ( 0.0000,  0.0000,  0.0000)
  41 Cu     6.432904    2.228423   23.403911    ( 0.0000,  0.0000,  0.0000)
  42 Cu     2.573162    4.456847   23.403911    ( 0.0000,  0.0000,  0.0000)
  43 Cu     5.146323    4.456847   23.403911    ( 0.0000,  0.0000,  0.0000)
  44 Cu     7.719485    4.456847   23.403911    ( 0.0000,  0.0000,  0.0000)

Unit cell:
           periodic     x           y           z      points  spacing
  1. axis:    yes    7.719485    0.000000    0.000000    32     0.2089
  2. axis:    yes    3.859742    6.685270    0.000000    32     0.2089
  3. axis:    no     0.000000    0.000000   38.403911   192     0.2000

  Lengths:   7.719485   7.719485  38.403911
  Angles:   90.000000  90.000000  60.000000

Effective grid spacing dv^(1/3) = 0.2160

                     log10-error:    total        iterations:
           time      wfs    density  energy       fermi  poisson
iter:   1  08:26:59          +inf  -198.880746    3      17     
iter:   2  08:27:15         -1.12  -178.223872    37     12     
iter:   3  08:27:31         -1.22  -148.020133    36     13     
iter:   4  08:27:45         -1.71  -146.614699    35     12     
iter:   5  08:28:00         -1.87  -147.294107    3      12     
iter:   6  08:28:15         -2.03  -146.242975    34     14     
iter:   7  08:28:35         -2.11  -145.853987    31     14     
iter:   8  08:28:51         -2.22  -145.683881    3      12     
iter:   9  08:29:06         -2.24  -145.308249    4      11     
iter:  10  08:29:22         -2.44  -145.302107    30     11     
iter:  11  08:29:38         -2.62  -145.209912    3      12     
iter:  12  08:29:54         -2.70  -145.247183    3      13     
iter:  13  08:30:10         -2.77  -145.203699    4      13     
iter:  14  08:30:26         -2.85  -145.188194    3      12     
iter:  15  08:30:42         -3.11  -145.181577    3      9      
iter:  16  08:30:57         -3.33  -145.180320    3      8      
iter:  17  08:31:12         -3.66  -145.180050    3      7      
iter:  18  08:31:27         -3.80  -145.180153    3      9      
iter:  19  08:31:43         -3.90  -145.180074    2      9      
iter:  20  08:31:58         -3.90  -145.179957    2      9      
iter:  21  08:32:13         -4.08  -145.179903    3      6      

Converged after 21 iterations.

Dipole moment: (7.722171, 4.458398, 0.000520) |e|*Ang

Energy contributions relative to reference atoms: (reference = -2025965.332850)

Kinetic:       -886.670085
Potential:     +756.240450
External:        +0.000000
XC:             -17.086810
Entropy (-ST):   -0.521113
Local:           +2.597099
--------------------------
Free energy:   -145.440460
Extrapolated:  -145.179903

Dipole-layer corrected work functions: 4.4646730280582405, 4.462849525964723 eV

Fermi level: -4.46376

Warning: Showing only first 2 kpts
 Kpt  Band  Eigenvalues  Occupancy
  0   245     -5.72834    0.22222
  0   246     -5.72833    0.22222
  0   247     -5.38591    0.22220
  0   248     -4.17801    0.01206

  1   245     -4.70193    0.40685
  1   246     -4.59020    0.34657
  1   247     -4.59012    0.34651
  1   248     -4.44753    0.20423



Forces in eV/Ang:
  0 Cu    0.00016   -0.00731    0.04350
  1 Cu   -0.00558   -0.00322    0.04658
  2 Cu    0.00445   -0.00187    0.04657
  3 Cu   -0.00288   -0.00022    0.04565
  4 Cu    0.00061    0.00479    0.04657
  5 Cu    0.00149    0.00086    0.04564
  6 Cu    0.00697    0.00402    0.04351
  7 Cu   -0.00625    0.00379    0.04350
  8 Cu   -0.00163   -0.00239    0.04565
  9 Cu    0.00002    0.00001   -0.02004
 10 Cu    0.01291    0.00116   -0.02002
 11 Cu   -0.01287   -0.00032   -0.02002
 12 Cu    0.00746    0.01060   -0.02002
 13 Cu   -0.00111   -0.00064   -0.01788
 14 Cu   -0.00619    0.00995   -0.02002
 15 Cu   -0.00672   -0.01099   -0.02002
 16 Cu    0.00552   -0.01033   -0.02002
 17 Cu    0.00114    0.00066   -0.01594
 18 Cu   -0.00740   -0.00427    0.00095
 19 Cu    0.00131    0.00400   -0.00257
 20 Cu    0.00614   -0.00405    0.00095
 21 Cu    0.00412   -0.00087   -0.00257
 22 Cu   -0.00333   -0.00192   -0.00255
 23 Cu   -0.00087   -0.00621    0.00050
 24 Cu   -0.00043    0.00734    0.00095
 25 Cu   -0.00581    0.00235    0.00050
 26 Cu    0.00634    0.00366    0.00047
 27 Cu    0.00044   -0.00591    0.01774
 28 Cu   -0.00733   -0.00423    0.01810
 29 Cu    0.00675   -0.00288    0.01810
 30 Cu   -0.00445    0.00102    0.01504
 31 Cu    0.00088    0.00728    0.01810
 32 Cu    0.00360    0.00208    0.01504
 33 Cu    0.00615    0.00355    0.01774
 34 Cu   -0.00490    0.00333    0.01774
 35 Cu   -0.00134   -0.00436    0.01504
 36 Cu    0.00029    0.00017   -0.05074
 37 Cu    0.01200    0.00156   -0.04824
 38 Cu   -0.01143    0.00009   -0.04823
 39 Cu    0.00735    0.00962   -0.04824
 40 Cu   -0.00084   -0.00049   -0.04857
 41 Cu   -0.00553    0.00893   -0.04824
 42 Cu   -0.00564   -0.00994   -0.04823
 43 Cu    0.00497   -0.00925   -0.04824
 44 Cu    0.00142    0.00082   -0.05095

System changes: positions 

Initializing position-dependent things.

Density initialized from wave functions
                                          
                                          
                                          
                                          
                                          
                Cu    Cu     Cu           
            Cu   CCu   CCu    Cu          
       Cu    Cu     Cu                    
             Cu    Cu    Cu               
        Cu    Cu    CCu   Cu    Cu        
               Cu     Cu    Cu            
                                          
           Cu   CCu   CCu    Cu           
            Cu    Cu    Cu                
                 Cu    Cu     Cu          
       Cu    Cu    CCu   Cu               
        Cu    Cu     Cu                   
                                          
                                          
                                          
                                          
                                          

Positions:
   0 Cu     0.000000    1.485616   15.000000    ( 0.0000,  0.0000,  0.0000)
   1 Cu     2.573162    1.485616   15.000000    ( 0.0000,  0.0000,  0.0000)
   2 Cu     5.146323    1.485616   15.000000    ( 0.0000,  0.0000,  0.0000)
   3 Cu     1.286581    3.714039   15.000000    ( 0.0000,  0.0000,  0.0000)
   4 Cu     3.859742    3.714039   15.000000    ( 0.0000,  0.0000,  0.0000)
   5 Cu     6.432904    3.714039   15.000000    ( 0.0000,  0.0000,  0.0000)
   6 Cu     2.573162    5.942462   15.000000    ( 0.0000,  0.0000,  0.0000)
   7 Cu     5.146323    5.942462   15.000000    ( 0.0000,  0.0000,  0.0000)
   8 Cu     7.719485    5.942462   15.000000    ( 0.0000,  0.0000,  0.0000)
   9 Cu     0.000000    0.000000   17.100978    ( 0.0000,  0.0000,  0.0000)
  10 Cu     2.573162    0.000000   17.100978    ( 0.0000,  0.0000,  0.0000)
  11 Cu     5.146323    0.000000   17.100978    ( 0.0000,  0.0000,  0.0000)
  12 Cu     1.286581    2.228423   17.100978    ( 0.0000,  0.0000,  0.0000)
  13 Cu     3.859742    2.228423   17.100978    ( 0.0000,  0.0000,  0.0000)
  14 Cu     6.432904    2.228423   17.100978    ( 0.0000,  0.0000,  0.0000)
  15 Cu     2.573162    4.456847   17.100978    ( 0.0000,  0.0000,  0.0000)
  16 Cu     5.146323    4.456847   17.100978    ( 0.0000,  0.0000,  0.0000)
  17 Cu     7.719485    4.456847   17.100978    ( 0.0000,  0.0000,  0.0000)
  18 Cu     1.286581    0.742808   19.202050    ( 0.0000,  0.0000,  0.0000)
  19 Cu     3.859742    0.742808   19.201698    ( 0.0000,  0.0000,  0.0000)
  20 Cu     6.432904    0.742808   19.202050    ( 0.0000,  0.0000,  0.0000)
  21 Cu     2.573162    2.971231   19.201698    ( 0.0000,  0.0000,  0.0000)
  22 Cu     5.146323    2.971231   19.201701    ( 0.0000,  0.0000,  0.0000)
  23 Cu     7.719485    2.971231   19.202005    ( 0.0000,  0.0000,  0.0000)
  24 Cu     3.859742    5.199654   19.202050    ( 0.0000,  0.0000,  0.0000)
  25 Cu     6.432904    5.199654   19.202005    ( 0.0000,  0.0000,  0.0000)
  26 Cu     9.006066    5.199654   19.202002    ( 0.0000,  0.0000,  0.0000)
  27 Cu     0.000000    1.485616   21.304706    ( 0.0000,  0.0000,  0.0000)
  28 Cu     2.573162    1.485616   21.304743    ( 0.0000,  0.0000,  0.0000)
  29 Cu     5.146323    1.485616   21.304743    ( 0.0000,  0.0000,  0.0000)
  30 Cu     1.286581    3.714039   21.304437    ( 0.0000,  0.0000,  0.0000)
  31 Cu     3.859742    3.714039   21.304743    ( 0.0000,  0.0000,  0.0000)
  32 Cu     6.432904    3.714039   21.304437    ( 0.0000,  0.0000,  0.0000)
  33 Cu     2.573162    5.942462   21.304707    ( 0.0000,  0.0000,  0.0000)
  34 Cu     5.146323    5.942462   21.304706    ( 0.0000,  0.0000,  0.0000)
  35 Cu     7.719485    5.942462   21.304437    ( 0.0000,  0.0000,  0.0000)
  36 Cu     0.000000    0.000000   23.398837    ( 0.0000,  0.0000,  0.0000)
  37 Cu     2.573162    0.000000   23.399087    ( 0.0000,  0.0000,  0.0000)
  38 Cu     5.146323    0.000000   23.399088    ( 0.0000,  0.0000,  0.0000)
  39 Cu     1.286581    2.228423   23.399087    ( 0.0000,  0.0000,  0.0000)
  40 Cu     3.859742    2.228423   23.399054    ( 0.0000,  0.0000,  0.0000)
  41 Cu     6.432904    2.228423   23.399087    ( 0.0000,  0.0000,  0.0000)
  42 Cu     2.573162    4.456847   23.399088    ( 0.0000,  0.0000,  0.0000)
  43 Cu     5.146323    4.456847   23.399087    ( 0.0000,  0.0000,  0.0000)
  44 Cu     7.719485    4.456847   23.398815    ( 0.0000,  0.0000,  0.0000)

Unit cell:
           periodic     x           y           z      points  spacing
  1. axis:    yes    7.719485    0.000000    0.000000    32     0.2089
  2. axis:    yes    3.859742    6.685270    0.000000    32     0.2089
  3. axis:    no     0.000000    0.000000   38.403911   192     0.2000

  Lengths:   7.719485   7.719485  38.403911
  Angles:   90.000000  90.000000  60.000000

Effective grid spacing dv^(1/3) = 0.2160

                     log10-error:    total        iterations:
           time      wfs    density  energy       fermi  poisson
iter:   1  08:33:31          +inf  -145.205537    3      12     
iter:   2  08:33:46         -3.02  -145.237028    3      13     
iter:   3  08:34:01         -2.86  -145.181839    3      13     
iter:   4  08:34:15         -3.87  -145.181625    2      6      
iter:   5  08:34:29         -4.04  -145.181611    3      8      

Converged after 5 iterations.

Dipole moment: (7.718816, 4.456460, 0.000852) |e|*Ang

Energy contributions relative to reference atoms: (reference = -2025965.332850)

Kinetic:       -888.109786
Potential:     +757.702868
External:        +0.000000
XC:             -17.216768
Entropy (-ST):   -0.521497
Local:           +2.702824
--------------------------
Free energy:   -145.442359
Extrapolated:  -145.181611

Dipole-layer corrected work functions: 4.46237473215836, 4.459388648371211 eV

Fermi level: -4.46088

Warning: Showing only first 2 kpts
 Kpt  Band  Eigenvalues  Occupancy
  0   245     -5.72557    0.22222
  0   246     -5.72554    0.22222
  0   247     -5.38222    0.22220
  0   248     -4.17259    0.01178

  1   245     -4.70152    0.40769
  1   246     -4.58518    0.34492
  1   247     -4.58510    0.34486
  1   248     -4.44574    0.20543



Forces in eV/Ang:
  0 Cu    0.00016   -0.00731    0.04352
  1 Cu   -0.00561   -0.00324    0.04637
  2 Cu    0.00449   -0.00188    0.04636
  3 Cu   -0.00291   -0.00021    0.04560
  4 Cu    0.00061    0.00483    0.04636
  5 Cu    0.00152    0.00088    0.04559
  6 Cu    0.00697    0.00403    0.04353
  7 Cu   -0.00625    0.00379    0.04352
  8 Cu   -0.00163   -0.00242    0.04560
  9 Cu    0.00002    0.00001   -0.02631
 10 Cu    0.01263    0.00110   -0.02654
 11 Cu   -0.01259   -0.00038   -0.02655
 12 Cu    0.00727    0.01039   -0.02654
 13 Cu   -0.00111   -0.00064   -0.02485
 14 Cu   -0.00600    0.00973   -0.02654
 15 Cu   -0.00662   -0.01071   -0.02655
 16 Cu    0.00543   -0.01006   -0.02654
 17 Cu    0.00114    0.00066   -0.02237
 18 Cu   -0.00733   -0.00423    0.00416
 19 Cu    0.00131    0.00431    0.00241
 20 Cu    0.00608   -0.00401    0.00416
 21 Cu    0.00439   -0.00102    0.00241
 22 Cu   -0.00359   -0.00207    0.00242
 23 Cu   -0.00087   -0.00642    0.00345
 24 Cu   -0.00043    0.00727    0.00416
 25 Cu   -0.00600    0.00246    0.00345
 26 Cu    0.00653    0.00377    0.00343
 27 Cu    0.00043   -0.00561   -0.00320
 28 Cu   -0.00721   -0.00417   -0.00401
 29 Cu    0.00663   -0.00281   -0.00401
 30 Cu   -0.00413    0.00084   -0.00579
 31 Cu    0.00088    0.00715   -0.00401
 32 Cu    0.00328    0.00189   -0.00579
 33 Cu    0.00589    0.00340   -0.00320
 34 Cu   -0.00464    0.00318   -0.00320
 35 Cu   -0.00134   -0.00399   -0.00579
 36 Cu    0.00029    0.00017   -0.03099
 37 Cu    0.01232    0.00153   -0.02827
 38 Cu   -0.01174    0.00006   -0.02826
 39 Cu    0.00749    0.00990   -0.02827
 40 Cu   -0.00084   -0.00049   -0.02499
 41 Cu   -0.00566    0.00921   -0.02827
 42 Cu   -0.00582   -0.01020   -0.02826
 43 Cu    0.00515   -0.00951   -0.02827
 44 Cu    0.00143    0.00082   -0.02647

System changes: positions 

Initializing position-dependent things.

Density initialized from wave functions
                                          
                                          
                                          
                                          
                                          
                Cu    Cu     Cu           
            Cu   CCu   CCu    Cu          
       Cu    Cu    CCu   Cu               
                                          
        Cu    Cu    CCu   Cu    Cu        
               Cu     Cu    Cu            
                                          
           Cu   CCu   CCu    Cu           
            Cu    Cu    Cu                
                 Cu    Cu     Cu          
       Cu    Cu    CCu   Cu               
        Cu    Cu     Cu                   
                                          
                                          
                                          
                                          
                                          

Positions:
   0 Cu     0.000000    1.485616   15.000000    ( 0.0000,  0.0000,  0.0000)
   1 Cu     2.573162    1.485616   15.000000    ( 0.0000,  0.0000,  0.0000)
   2 Cu     5.146323    1.485616   15.000000    ( 0.0000,  0.0000,  0.0000)
   3 Cu     1.286581    3.714039   15.000000    ( 0.0000,  0.0000,  0.0000)
   4 Cu     3.859742    3.714039   15.000000    ( 0.0000,  0.0000,  0.0000)
   5 Cu     6.432904    3.714039   15.000000    ( 0.0000,  0.0000,  0.0000)
   6 Cu     2.573162    5.942462   15.000000    ( 0.0000,  0.0000,  0.0000)
   7 Cu     5.146323    5.942462   15.000000    ( 0.0000,  0.0000,  0.0000)
   8 Cu     7.719485    5.942462   15.000000    ( 0.0000,  0.0000,  0.0000)
   9 Cu     0.000000    0.000000   17.100978    ( 0.0000,  0.0000,  0.0000)
  10 Cu     2.573162    0.000000   17.100978    ( 0.0000,  0.0000,  0.0000)
  11 Cu     5.146323    0.000000   17.100978    ( 0.0000,  0.0000,  0.0000)
  12 Cu     1.286581    2.228423   17.100978    ( 0.0000,  0.0000,  0.0000)
  13 Cu     3.859742    2.228423   17.100978    ( 0.0000,  0.0000,  0.0000)
  14 Cu     6.432904    2.228423   17.100978    ( 0.0000,  0.0000,  0.0000)
  15 Cu     2.573162    4.456847   17.100978    ( 0.0000,  0.0000,  0.0000)
  16 Cu     5.146323    4.456847   17.100978    ( 0.0000,  0.0000,  0.0000)
  17 Cu     7.719485    4.456847   17.100978    ( 0.0000,  0.0000,  0.0000)
  18 Cu     1.286581    0.742808   19.202139    ( 0.0000,  0.0000,  0.0000)
  19 Cu     3.859742    0.742808   19.201457    ( 0.0000,  0.0000,  0.0000)
  20 Cu     6.432904    0.742808   19.202139    ( 0.0000,  0.0000,  0.0000)
  21 Cu     2.573162    2.971231   19.201457    ( 0.0000,  0.0000,  0.0000)
  22 Cu     5.146323    2.971231   19.201462    ( 0.0000,  0.0000,  0.0000)
  23 Cu     7.719485    2.971231   19.202051    ( 0.0000,  0.0000,  0.0000)
  24 Cu     3.859742    5.199654   19.202139    ( 0.0000,  0.0000,  0.0000)
  25 Cu     6.432904    5.199654   19.202051    ( 0.0000,  0.0000,  0.0000)
  26 Cu     9.006066    5.199654   19.202046    ( 0.0000,  0.0000,  0.0000)
  27 Cu     0.000000    1.485616   21.306368    ( 0.0000,  0.0000,  0.0000)
  28 Cu     2.573162    1.485616   21.306439    ( 0.0000,  0.0000,  0.0000)
  29 Cu     5.146323    1.485616   21.306439    ( 0.0000,  0.0000,  0.0000)
  30 Cu     1.286581    3.714039   21.305845    ( 0.0000,  0.0000,  0.0000)
  31 Cu     3.859742    3.714039   21.306439    ( 0.0000,  0.0000,  0.0000)
  32 Cu     6.432904    3.714039   21.305845    ( 0.0000,  0.0000,  0.0000)
  33 Cu     2.573162    5.942462   21.306368    ( 0.0000,  0.0000,  0.0000)
  34 Cu     5.146323    5.942462   21.306368    ( 0.0000,  0.0000,  0.0000)
  35 Cu     7.719485    5.942462   21.305845    ( 0.0000,  0.0000,  0.0000)
  36 Cu     0.000000    0.000000   23.394084    ( 0.0000,  0.0000,  0.0000)
  37 Cu     2.573162    0.000000   23.394568    ( 0.0000,  0.0000,  0.0000)
  38 Cu     5.146323    0.000000   23.394570    ( 0.0000,  0.0000,  0.0000)
  39 Cu     1.286581    2.228423   23.394568    ( 0.0000,  0.0000,  0.0000)
  40 Cu     3.859742    2.228423   23.394504    ( 0.0000,  0.0000,  0.0000)
  41 Cu     6.432904    2.228423   23.394568    ( 0.0000,  0.0000,  0.0000)
  42 Cu     2.573162    4.456847   23.394570    ( 0.0000,  0.0000,  0.0000)
  43 Cu     5.146323    4.456847   23.394568    ( 0.0000,  0.0000,  0.0000)
  44 Cu     7.719485    4.456847   23.394042    ( 0.0000,  0.0000,  0.0000)

Unit cell:
           periodic     x           y           z      points  spacing
  1. axis:    yes    7.719485    0.000000    0.000000    32     0.2089
  2. axis:    yes    3.859742    6.685270    0.000000    32     0.2089
  3. axis:    no     0.000000    0.000000   38.403911   192     0.2000

  Lengths:   7.719485   7.719485  38.403911
  Angles:   90.000000  90.000000  60.000000

Effective grid spacing dv^(1/3) = 0.2160

                     log10-error:    total        iterations:
           time      wfs    density  energy       fermi  poisson
iter:   1  08:35:47          +inf  -145.189387    3      12     
iter:   2  08:36:02         -3.34  -145.193080    3      12     
iter:   3  08:36:18         -3.21  -145.182331    2      12     
iter:   4  08:36:32         -4.08  -145.181966    2      8      

Converged after 4 iterations.

Dipole moment: (7.713872, 4.453606, 0.003610) |e|*Ang

Energy contributions relative to reference atoms: (reference = -2025965.332850)

Kinetic:       -886.397609
Potential:     +756.236907
External:        +0.000000
XC:             -17.470683
Entropy (-ST):   -0.522012
Local:           +2.710426
--------------------------
Free energy:   -145.442972
Extrapolated:  -145.181966

Dipole-layer corrected work functions: 4.4609659994907735, 4.448307347179755 eV

Fermi level: -4.45464

Warning: Showing only first 2 kpts
 Kpt  Band  Eigenvalues  Occupancy
  0   245     -5.71783    0.22222
  0   246     -5.71774    0.22222
  0   247     -5.37598    0.22220
  0   248     -4.16423    0.01155

  1   245     -4.69628    0.40803
  1   246     -4.57733    0.34368
  1   247     -4.57725    0.34362
  1   248     -4.44041    0.20644



Forces in eV/Ang:
  0 Cu    0.00016   -0.00737    0.05418
  1 Cu   -0.00568   -0.00328    0.05707
  2 Cu    0.00456   -0.00192    0.05706
  3 Cu   -0.00291   -0.00021    0.05622
  4 Cu    0.00061    0.00491    0.05706
  5 Cu    0.00152    0.00088    0.05621
  6 Cu    0.00703    0.00406    0.05419
  7 Cu   -0.00630    0.00382    0.05418
  8 Cu   -0.00163   -0.00242    0.05622
  9 Cu    0.00002    0.00001   -0.03288
 10 Cu    0.01245    0.00113   -0.03341
 11 Cu   -0.01241   -0.00035   -0.03342
 12 Cu    0.00720    0.01022   -0.03341
 13 Cu   -0.00110   -0.00064   -0.03228
 14 Cu   -0.00593    0.00956   -0.03341
 15 Cu   -0.00651   -0.01057   -0.03342
 16 Cu    0.00532   -0.00991   -0.03341
 17 Cu    0.00114    0.00066   -0.02900
 18 Cu   -0.00731   -0.00422    0.00393
 19 Cu    0.00131    0.00454    0.00367
 20 Cu    0.00606   -0.00400    0.00393
 21 Cu    0.00458   -0.00114    0.00367
 22 Cu   -0.00379   -0.00219    0.00367
 23 Cu   -0.00087   -0.00663    0.00280
 24 Cu   -0.00043    0.00724    0.00393
 25 Cu   -0.00618    0.00256    0.00280
 26 Cu    0.00671    0.00387    0.00280
 27 Cu    0.00043   -0.00588   -0.02034
 28 Cu   -0.00734   -0.00424   -0.02261
 29 Cu    0.00675   -0.00289   -0.02260
 30 Cu   -0.00365    0.00056   -0.02317
 31 Cu    0.00088    0.00729   -0.02260
 32 Cu    0.00280    0.00162   -0.02316
 33 Cu    0.00611    0.00353   -0.02035
 34 Cu   -0.00488    0.00331   -0.02034
 35 Cu   -0.00134   -0.00344   -0.02317
 36 Cu    0.00029    0.00017   -0.03879
 37 Cu    0.01171    0.00199   -0.03684
 38 Cu   -0.01113    0.00052   -0.03684
 39 Cu    0.00758    0.00915   -0.03684
 40 Cu   -0.00084   -0.00049   -0.03067
 41 Cu   -0.00575    0.00846   -0.03685
 42 Cu   -0.00512   -0.00990   -0.03684
 43 Cu    0.00445   -0.00921   -0.03685
 44 Cu    0.00143    0.00082   -0.03187

System changes: positions 

Initializing position-dependent things.

Density initialized from wave functions
                                          
                                          
                                          
                                          
                                          
                Cu    Cu     Cu           
            Cu   CCu   CCu    Cu          
       Cu    Cu    CCu   Cu               
                                          
        Cu    Cu    CCu   Cu    Cu        
               Cu     Cu    Cu            
                                          
           Cu   CCu   CCu    Cu           
            Cu    Cu    Cu                
                 Cu    Cu     Cu          
       Cu    Cu    CCu   Cu               
        Cu    Cu     Cu                   
                                          
                                          
                                          
                                          
                                          

Positions:
   0 Cu     0.000000    1.485616   15.000000    ( 0.0000,  0.0000,  0.0000)
   1 Cu     2.573162    1.485616   15.000000    ( 0.0000,  0.0000,  0.0000)
   2 Cu     5.146323    1.485616   15.000000    ( 0.0000,  0.0000,  0.0000)
   3 Cu     1.286581    3.714039   15.000000    ( 0.0000,  0.0000,  0.0000)
   4 Cu     3.859742    3.714039   15.000000    ( 0.0000,  0.0000,  0.0000)
   5 Cu     6.432904    3.714039   15.000000    ( 0.0000,  0.0000,  0.0000)
   6 Cu     2.573162    5.942462   15.000000    ( 0.0000,  0.0000,  0.0000)
   7 Cu     5.146323    5.942462   15.000000    ( 0.0000,  0.0000,  0.0000)
   8 Cu     7.719485    5.942462   15.000000    ( 0.0000,  0.0000,  0.0000)
   9 Cu     0.000000    0.000000   17.100978    ( 0.0000,  0.0000,  0.0000)
  10 Cu     2.573162    0.000000   17.100978    ( 0.0000,  0.0000,  0.0000)
  11 Cu     5.146323    0.000000   17.100978    ( 0.0000,  0.0000,  0.0000)
  12 Cu     1.286581    2.228423   17.100978    ( 0.0000,  0.0000,  0.0000)
  13 Cu     3.859742    2.228423   17.100978    ( 0.0000,  0.0000,  0.0000)
  14 Cu     6.432904    2.228423   17.100978    ( 0.0000,  0.0000,  0.0000)
  15 Cu     2.573162    4.456847   17.100978    ( 0.0000,  0.0000,  0.0000)
  16 Cu     5.146323    4.456847   17.100978    ( 0.0000,  0.0000,  0.0000)
  17 Cu     7.719485    4.456847   17.100978    ( 0.0000,  0.0000,  0.0000)
  18 Cu     1.286581    0.742808   19.202495    ( 0.0000,  0.0000,  0.0000)
  19 Cu     3.859742    0.742808   19.200494    ( 0.0000,  0.0000,  0.0000)
  20 Cu     6.432904    0.742808   19.202494    ( 0.0000,  0.0000,  0.0000)
  21 Cu     2.573162    2.971231   19.200494    ( 0.0000,  0.0000,  0.0000)
  22 Cu     5.146323    2.971231   19.200508    ( 0.0000,  0.0000,  0.0000)
  23 Cu     7.719485    2.971231   19.202238    ( 0.0000,  0.0000,  0.0000)
  24 Cu     3.859742    5.199654   19.202494    ( 0.0000,  0.0000,  0.0000)
  25 Cu     6.432904    5.199654   19.202238    ( 0.0000,  0.0000,  0.0000)
  26 Cu     9.006066    5.199654   19.202221    ( 0.0000,  0.0000,  0.0000)
  27 Cu     0.000000    1.485616   21.313013    ( 0.0000,  0.0000,  0.0000)
  28 Cu     2.573162    1.485616   21.313222    ( 0.0000,  0.0000,  0.0000)
  29 Cu     5.146323    1.485616   21.313223    ( 0.0000,  0.0000,  0.0000)
  30 Cu     1.286581    3.714039   21.311480    ( 0.0000,  0.0000,  0.0000)
  31 Cu     3.859742    3.714039   21.313223    ( 0.0000,  0.0000,  0.0000)
  32 Cu     6.432904    3.714039   21.311480    ( 0.0000,  0.0000,  0.0000)
  33 Cu     2.573162    5.942462   21.313014    ( 0.0000,  0.0000,  0.0000)
  34 Cu     5.146323    5.942462   21.313013    ( 0.0000,  0.0000,  0.0000)
  35 Cu     7.719485    5.942462   21.311480    ( 0.0000,  0.0000,  0.0000)
  36 Cu     0.000000    0.000000   23.375073    ( 0.0000,  0.0000,  0.0000)
  37 Cu     2.573162    0.000000   23.376493    ( 0.0000,  0.0000,  0.0000)
  38 Cu     5.146323    0.000000   23.376498    ( 0.0000,  0.0000,  0.0000)
  39 Cu     1.286581    2.228423   23.376493    ( 0.0000,  0.0000,  0.0000)
  40 Cu     3.859742    2.228423   23.376305    ( 0.0000,  0.0000,  0.0000)
  41 Cu     6.432904    2.228423   23.376493    ( 0.0000,  0.0000,  0.0000)
  42 Cu     2.573162    4.456847   23.376498    ( 0.0000,  0.0000,  0.0000)
  43 Cu     5.146323    4.456847   23.376493    ( 0.0000,  0.0000,  0.0000)
  44 Cu     7.719485    4.456847   23.374950    ( 0.0000,  0.0000,  0.0000)

Unit cell:
           periodic     x           y           z      points  spacing
  1. axis:    yes    7.719485    0.000000    0.000000    32     0.2089
  2. axis:    yes    3.859742    6.685270    0.000000    32     0.2089
  3. axis:    no     0.000000    0.000000   38.403911   192     0.2000

  Lengths:   7.719485   7.719485  38.403911
  Angles:   90.000000  90.000000  60.000000

Effective grid spacing dv^(1/3) = 0.2160

                     log10-error:    total        iterations:
           time      wfs    density  energy       fermi  poisson
iter:   1  08:37:52          +inf  -145.355639    3      13     
iter:   2  08:38:07         -2.61  -145.602153    3      14     
iter:   3  08:38:23         -2.42  -145.172005    3      14     
iter:   4  08:38:37         -3.66  -145.170902    2      7      
iter:   5  08:38:52         -3.74  -145.170149    3      9      
iter:   6  08:39:06         -4.04  -145.169843    3      8      

Converged after 6 iterations.

Dipole moment: (7.707307, 4.449816, 0.003316) |e|*Ang

Energy contributions relative to reference atoms: (reference = -2025965.332850)

Kinetic:       -885.627629
Potential:     +755.827823
External:        +0.000000
XC:             -17.859703
Entropy (-ST):   -0.523210
Local:           +2.751271
--------------------------
Free energy:   -145.431448
Extrapolated:  -145.169843

Dipole-layer corrected work functions: 4.46078034558725, 4.449152794266748 eV

Fermi level: -4.45497

Warning: Showing only first 2 kpts
 Kpt  Band  Eigenvalues  Occupancy
  0   245     -5.71963    0.22222
  0   246     -5.71943    0.22222
  0   247     -5.37118    0.22220
  0   248     -4.15441    0.01048

  1   245     -4.70662    0.41124
  1   246     -4.56960    0.33726
  1   247     -4.56948    0.33717
  1   248     -4.44485    0.21099



Forces in eV/Ang:
  0 Cu    0.00016   -0.00721    0.05304
  1 Cu   -0.00552   -0.00318    0.05544
  2 Cu    0.00439   -0.00183    0.05543
  3 Cu   -0.00289   -0.00022    0.05491
  4 Cu    0.00061    0.00472    0.05543
  5 Cu    0.00149    0.00086    0.05490
  6 Cu    0.00689    0.00398    0.05305
  7 Cu   -0.00617    0.00374    0.05304
  8 Cu   -0.00163   -0.00239    0.05491
  9 Cu    0.00002    0.00001   -0.02534
 10 Cu    0.01127    0.00052   -0.02769
 11 Cu   -0.01123   -0.00094   -0.02771
 12 Cu    0.00609    0.00950   -0.02769
 13 Cu   -0.00110   -0.00063   -0.02957
 14 Cu   -0.00482    0.00885   -0.02768
 15 Cu   -0.00643   -0.00925   -0.02771
 16 Cu    0.00525   -0.00860   -0.02768
 17 Cu    0.00113    0.00065   -0.02228
 18 Cu   -0.00722   -0.00417    0.02828
 19 Cu    0.00131    0.00564    0.03592
 20 Cu    0.00596   -0.00394    0.02829
 21 Cu    0.00554   -0.00168    0.03592
 22 Cu   -0.00474   -0.00274    0.03586
 23 Cu   -0.00087   -0.00764    0.02573
 24 Cu   -0.00043    0.00713    0.02829
 25 Cu   -0.00705    0.00307    0.02573
 26 Cu    0.00759    0.00438    0.02580
 27 Cu    0.00042   -0.00429   -0.15675
 28 Cu   -0.00719   -0.00415   -0.16392
 29 Cu    0.00659   -0.00281   -0.16390
 30 Cu   -0.00243   -0.00014   -0.15619
 31 Cu    0.00086    0.00712   -0.16390
 32 Cu    0.00158    0.00091   -0.15616
 33 Cu    0.00472    0.00272   -0.15676
 34 Cu   -0.00350    0.00251   -0.15675
 35 Cu   -0.00133   -0.00203   -0.15619
 36 Cu    0.00030    0.00017    0.09203
 37 Cu    0.01334    0.00075    0.08257
 38 Cu   -0.01274   -0.00072    0.08256
 39 Cu    0.00732    0.01118    0.08257
 40 Cu   -0.00084   -0.00048    0.09078
 41 Cu   -0.00549    0.01049    0.08256
 42 Cu   -0.00699   -0.01068    0.08256
 43 Cu    0.00634   -0.00999    0.08256
 44 Cu    0.00143    0.00083    0.09296

System changes: positions 

Initializing position-dependent things.

Density initialized from wave functions
                                          
                                          
                                          
                                          
                                          
                Cu    Cu     Cu           
            Cu   CCu   CCu    Cu          
       Cu    Cu    CCu   Cu               
                                          
        Cu    Cu    CCu   Cu    Cu        
               Cu     Cu    Cu            
                                          
           Cu   CCu   CCu    Cu           
            Cu    Cu    Cu                
                 Cu    Cu     Cu          
       Cu    Cu    CCu   Cu               
        Cu    Cu     Cu                   
                                          
                                          
                                          
                                          
                                          

Positions:
   0 Cu     0.000000    1.485616   15.000000    ( 0.0000,  0.0000,  0.0000)
   1 Cu     2.573162    1.485616   15.000000    ( 0.0000,  0.0000,  0.0000)
   2 Cu     5.146323    1.485616   15.000000    ( 0.0000,  0.0000,  0.0000)
   3 Cu     1.286581    3.714039   15.000000    ( 0.0000,  0.0000,  0.0000)
   4 Cu     3.859742    3.714039   15.000000    ( 0.0000,  0.0000,  0.0000)
   5 Cu     6.432904    3.714039   15.000000    ( 0.0000,  0.0000,  0.0000)
   6 Cu     2.573162    5.942462   15.000000    ( 0.0000,  0.0000,  0.0000)
   7 Cu     5.146323    5.942462   15.000000    ( 0.0000,  0.0000,  0.0000)
   8 Cu     7.719485    5.942462   15.000000    ( 0.0000,  0.0000,  0.0000)
   9 Cu     0.000000    0.000000   17.100978    ( 0.0000,  0.0000,  0.0000)
  10 Cu     2.573162    0.000000   17.100978    ( 0.0000,  0.0000,  0.0000)
  11 Cu     5.146323    0.000000   17.100978    ( 0.0000,  0.0000,  0.0000)
  12 Cu     1.286581    2.228423   17.100978    ( 0.0000,  0.0000,  0.0000)
  13 Cu     3.859742    2.228423   17.100978    ( 0.0000,  0.0000,  0.0000)
  14 Cu     6.432904    2.228423   17.100978    ( 0.0000,  0.0000,  0.0000)
  15 Cu     2.573162    4.456847   17.100978    ( 0.0000,  0.0000,  0.0000)
  16 Cu     5.146323    4.456847   17.100978    ( 0.0000,  0.0000,  0.0000)
  17 Cu     7.719485    4.456847   17.100978    ( 0.0000,  0.0000,  0.0000)
  18 Cu     1.286581    0.742808   19.202181    ( 0.0000,  0.0000,  0.0000)
  19 Cu     3.859742    0.742808   19.201345    ( 0.0000,  0.0000,  0.0000)
  20 Cu     6.432904    0.742808   19.202181    ( 0.0000,  0.0000,  0.0000)
  21 Cu     2.573162    2.971231   19.201345    ( 0.0000,  0.0000,  0.0000)
  22 Cu     5.146323    2.971231   19.201350    ( 0.0000,  0.0000,  0.0000)
  23 Cu     7.719485    2.971231   19.202073    ( 0.0000,  0.0000,  0.0000)
  24 Cu     3.859742    5.199654   19.202181    ( 0.0000,  0.0000,  0.0000)
  25 Cu     6.432904    5.199654   19.202073    ( 0.0000,  0.0000,  0.0000)
  26 Cu     9.006066    5.199654   19.202066    ( 0.0000,  0.0000,  0.0000)
  27 Cu     0.000000    1.485616   21.307147    ( 0.0000,  0.0000,  0.0000)
  28 Cu     2.573162    1.485616   21.307234    ( 0.0000,  0.0000,  0.0000)
  29 Cu     5.146323    1.485616   21.307234    ( 0.0000,  0.0000,  0.0000)
  30 Cu     1.286581    3.714039   21.306506    ( 0.0000,  0.0000,  0.0000)
  31 Cu     3.859742    3.714039   21.307234    ( 0.0000,  0.0000,  0.0000)
  32 Cu     6.432904    3.714039   21.306506    ( 0.0000,  0.0000,  0.0000)
  33 Cu     2.573162    5.942462   21.307147    ( 0.0000,  0.0000,  0.0000)
  34 Cu     5.146323    5.942462   21.307147    ( 0.0000,  0.0000,  0.0000)
  35 Cu     7.719485    5.942462   21.306506    ( 0.0000,  0.0000,  0.0000)
  36 Cu     0.000000    0.000000   23.391856    ( 0.0000,  0.0000,  0.0000)
  37 Cu     2.573162    0.000000   23.392449    ( 0.0000,  0.0000,  0.0000)
  38 Cu     5.146323    0.000000   23.392452    ( 0.0000,  0.0000,  0.0000)
  39 Cu     1.286581    2.228423   23.392449    ( 0.0000,  0.0000,  0.0000)
  40 Cu     3.859742    2.228423   23.392371    ( 0.0000,  0.0000,  0.0000)
  41 Cu     6.432904    2.228423   23.392449    ( 0.0000,  0.0000,  0.0000)
  42 Cu     2.573162    4.456847   23.392452    ( 0.0000,  0.0000,  0.0000)
  43 Cu     5.146323    4.456847   23.392449    ( 0.0000,  0.0000,  0.0000)
  44 Cu     7.719485    4.456847   23.391805    ( 0.0000,  0.0000,  0.0000)

Unit cell:
           periodic     x           y           z      points  spacing
  1. axis:    yes    7.719485    0.000000    0.000000    32     0.2089
  2. axis:    yes    3.859742    6.685270    0.000000    32     0.2089
  3. axis:    no     0.000000    0.000000   38.403911   192     0.2000

  Lengths:   7.719485   7.719485  38.403911
  Angles:   90.000000  90.000000  60.000000

Effective grid spacing dv^(1/3) = 0.2160

                     log10-error:    total        iterations:
           time      wfs    density  energy       fermi  poisson
iter:   1  08:40:26          +inf  -145.271349    3      13     
iter:   2  08:40:41         -2.77  -145.390634    3      14     
iter:   3  08:40:58         -2.57  -145.182301    3      13     
iter:   4  08:41:12         -3.64  -145.181961    2      7      
iter:   5  08:41:27         -3.70  -145.181652    3      9      
iter:   6  08:41:42         -3.92  -145.181621    3      9      
iter:   7  08:41:54         -4.19  -145.181567    3      7      

Converged after 7 iterations.

Dipole moment: (7.713679, 4.453495, 0.002038) |e|*Ang

Energy contributions relative to reference atoms: (reference = -2025965.332850)

Kinetic:       -885.501119
Potential:     +755.414745
External:        +0.000000
XC:             -17.473455
Entropy (-ST):   -0.522103
Local:           +2.639313
--------------------------
Free energy:   -145.442618
Extrapolated:  -145.181567

Dipole-layer corrected work functions: 4.463574207988648, 4.456428621547867 eV

Fermi level: -4.46000

Warning: Showing only first 2 kpts
 Kpt  Band  Eigenvalues  Occupancy
  0   245     -5.72456    0.22222
  0   246     -5.72450    0.22222
  0   247     -5.37943    0.22220
  0   248     -4.16801    0.01137

  1   245     -4.70368    0.40871
  1   246     -4.58145    0.34271
  1   247     -4.58137    0.34265
  1   248     -4.44637    0.20710



Forces in eV/Ang:
  0 Cu    0.00016   -0.00731    0.04172
  1 Cu   -0.00564   -0.00326    0.04469
  2 Cu    0.00452   -0.00190    0.04467
  3 Cu   -0.00297   -0.00017    0.04381
  4 Cu    0.00061    0.00487    0.04467
  5 Cu    0.00158    0.00091    0.04380
  6 Cu    0.00697    0.00403    0.04173
  7 Cu   -0.00625    0.00379    0.04172
  8 Cu   -0.00163   -0.00249    0.04381
  9 Cu    0.00002    0.00001   -0.02967
 10 Cu    0.01224    0.00084   -0.03070
 11 Cu   -0.01221   -0.00063   -0.03070
 12 Cu    0.00685    0.01018   -0.03070
 13 Cu   -0.00110   -0.00064   -0.03025
 14 Cu   -0.00558    0.00953   -0.03069
 15 Cu   -0.00665   -0.01025   -0.03070
 16 Cu    0.00546   -0.00960   -0.03069
 17 Cu    0.00113    0.00065   -0.02591
 18 Cu   -0.00734   -0.00424    0.01431
 19 Cu    0.00131    0.00446    0.01544
 20 Cu    0.00609   -0.00402    0.01431
 21 Cu    0.00451   -0.00109    0.01544
 22 Cu   -0.00372   -0.00215    0.01544
 23 Cu   -0.00087   -0.00670    0.01304
 24 Cu   -0.00043    0.00728    0.01431
 25 Cu   -0.00624    0.00259    0.01304
 26 Cu    0.00677    0.00391    0.01305
 27 Cu    0.00043   -0.00546   -0.02116
 28 Cu   -0.00699   -0.00404   -0.02491
 29 Cu    0.00640   -0.00269   -0.02490
 30 Cu   -0.00381    0.00065   -0.02363
 31 Cu    0.00087    0.00689   -0.02490
 32 Cu    0.00296    0.00171   -0.02361
 33 Cu    0.00575    0.00332   -0.02117
 34 Cu   -0.00452    0.00310   -0.02116
 35 Cu   -0.00134   -0.00362   -0.02363
 36 Cu    0.00029    0.00017    0.00124
 37 Cu    0.01257    0.00131    0.00161
 38 Cu   -0.01198   -0.00016    0.00161
 39 Cu    0.00742    0.01023    0.00161
 40 Cu   -0.00084   -0.00049    0.00919
 41 Cu   -0.00559    0.00954    0.00160
 42 Cu   -0.00613   -0.01030    0.00161
 43 Cu    0.00546   -0.00961    0.00160
 44 Cu    0.00143    0.00082    0.00856

Writing to Cu111.gpw (mode='all')


