
  ___ ___ ___ _ _ _  
 |   |   |_  | | | | 
 | | | | | . | | | | 
 |__ |  _|___|_____|  20.1.0
 |___|_|             

User:   romanov_av@node10
Date:   Tue Jan 30 12:22:58 2024
Arch:   x86_64
Pid:    96373
Python: 3.8.2
gpaw:   /home/romanov_av/bin/gcc/4.8.5/openmpi/4.0.3/gpaw/20.1.0/lib/python3.8/site-packages/gpaw-20.1.0-py3.8-linux-x86_64.egg/gpaw
_gpaw:  /home/romanov_av/bin/gcc/4.8.5/openmpi/4.0.3/gpaw/20.1.0/lib/python3.8/site-packages/gpaw-20.1.0-py3.8-linux-x86_64.egg/
        _gpaw.cpython-38-x86_64-linux-gnu.so
ase:    /beegfs/home/romanov_av/bin/gcc/4.8.5/openmpi/4.0.3/ase/3.19.0/lib/python3.8/site-packages/ase-3.19.0-py3.8.egg/ase (version 3.19.0)
numpy:  /beegfs/home/romanov_av/bin/gcc/4.8.5/openmpi/4.0.3/numpy/1.18.1/lib/python3.8/site-packages/numpy-1.18.1-py3.8-linux-x86_64.egg/numpy (version 1.18.1)
scipy:  /beegfs/home/romanov_av/bin/gcc/4.8.5/openmpi/4.0.3/scipy/1.4.1/lib/python3.8/site-packages/scipy-1.4.1-py3.8-linux-x86_64.egg/scipy (version 1.4.1)
libxc:  4.3.4
units:  Angstrom and eV
cores: 24
OMP_NUM_THREADS: 1

System changes: positions, numbers, cell, pbc, initial_charges, initial_magmoms 

Initialize ...

Cu-setup:
  name: Copper
  id: f1c4d45d90492f1bbfdcb091e8418fdf
  Z: 29
  valence: 11
  core: 18
  charge: 0.0
  file: /home/romanov_av/bin/gcc/4.8.5/openmpi/4.0.3/gpaw-setups/0.9.20000/Cu.PBE.gz
  compensation charges: gauss, rc=0.33, lmax=2
  cutoffs: 2.06(filt), 2.43(core),
  valence states:
                energy  radius
    4s(1.00)    -4.609   1.164
    4p(0.00)    -0.698   1.164
    3d(10.00)    -5.039   1.058
    *s          22.603   1.164
    *p          26.513   1.164
    *d          22.172   1.058

  LCAO basis set for Cu:
    Name: dzp
    File: /home/romanov_av/bin/gcc/4.8.5/openmpi/4.0.3/gpaw-setups/0.9.20000/Cu.dzp.basis.gz
    Number of radial functions: 5
    Number of spherical harmonics: 15
      l=0, rc=8.9688 Bohr: 4s-sz confined orbital
      l=2, rc=5.1719 Bohr: 3d-sz confined orbital
      l=0, rc=5.3281 Bohr: 4s-dz split-valence wave
      l=2, rc=3.1406 Bohr: 3d-dz split-valence wave
      l=1, rc=8.9688 Bohr: p-type Gaussian polarization

Reference energy: -2025965.332850

Spin-paired calculation

Occupation numbers:
  Fermi-Dirac: width=0.1000 eV

Convergence criteria:
  Maximum total energy change: 0.0005 eV / electron
  Maximum integral of absolute density change: 0.0001 electrons
  Maximum integral of absolute eigenstate change: 4e-08 eV^2
  Maximum number of iterations: 333

Symmetries present (total): 1

  ( 1  0  0)
  ( 0  1  0)
  ( 0  0  1)

9 k-points: 3 x 3 x 1 Monkhorst-Pack grid
5 k-points in the irreducible part of the Brillouin zone
       k-points in crystal coordinates                weights
   0:     0.00000000    0.00000000    0.00000000          1/9
   1:     0.00000000    0.33333333    0.00000000          2/9
   2:     0.33333333   -0.33333333    0.00000000          2/9
   3:     0.33333333    0.00000000    0.00000000          2/9
   4:     0.33333333    0.33333333    0.00000000          2/9

Wave functions: LCAO
  Diagonalizer: BLACS / ScaLAPACK, 6 x 4 grid with 32 x 32 blocksize
  Atomic Correction: sparse using scipy
  Datatype: complex
 

Eigensolver
   LCAO using direct dense diagonalizer 

Densities:
  Coarse grid: 32*32*192 grid
  Fine grid: 64*64*384 grid
  Total Charge: 0.000000 

Density mixing:
  Method: separate
  Backend: pulay
  Linear mixing parameter: 0.05
  Mixing with 5 old densities
  Damping of long wave oscillations: 50 

Hamiltonian:
  XC and Coulomb potentials evaluated on a 64*64*384 grid
  Using the PBE Exchange-Correlation functional
  Interpolation: tri-quintic (5. degree polynomial)
  Poisson solver: FastPoissonSolver using
    8*3+1=25 point O(h^6) finite-difference Laplacian stencil;
    FFT axes: [0, 1];
    FST axes: [2].

Dipole correction along z-axis 

XC parameters: PBE with 2 nearest neighbor stencil

Memory estimate:
  Process memory now: 83.99 MiB
  Calculator: 31.93 MiB
    Density: 7.69 MiB
      Arrays: 1.60 MiB
      Localized functions: 5.49 MiB
      Mixer: 0.61 MiB
    Hamiltonian: 1.46 MiB
      Arrays: 1.04 MiB
      XC: 0.00 MiB
      Poisson: 0.00 MiB
      vbar: 0.41 MiB
    Wavefunctions: 22.78 MiB
      C [qnM]: 15.50 MiB
      S, T [2 x qmm]: 3.75 MiB
      P [aqMi]: 0.11 MiB
      BasisFunctions: 3.42 MiB
      Eigensolver: 0.00 MiB

Total number of cores used: 24
Domain decomposition: 2 x 2 x 6

Number of atoms: 45
Number of atomic orbitals: 675
Number of bands in calculation: 301
Number of valence electrons: 495
Bands to converge: occupied

... initialized

Initializing position-dependent things.

Density initialized from atomic densities
                                          
                                          
                                          
                                          
                                          
                Cu    Cu     Cu           
            Cu   CCu   CCu    Cu          
       Cu    Cu     Cu                    
             Cu    Cu    Cu               
        Cu    Cu    CCu   Cu    Cu        
               Cu     Cu    Cu            
                                          
           Cu   CCu   CCu    Cu           
            Cu    Cu    Cu                
                 Cu    Cu     Cu          
       Cu    Cu    CCu   Cu               
        Cu    Cu     Cu                   
                                          
                                          
                                          
                                          
                                          

Positions:
   0 Cu     0.000000    1.485616   15.000000    ( 0.0000,  0.0000,  0.0000)
   1 Cu     2.573162    1.485616   15.000000    ( 0.0000,  0.0000,  0.0000)
   2 Cu     5.146323    1.485616   15.000000    ( 0.0000,  0.0000,  0.0000)
   3 Cu     1.286581    3.714039   15.000000    ( 0.0000,  0.0000,  0.0000)
   4 Cu     3.859742    3.714039   15.000000    ( 0.0000,  0.0000,  0.0000)
   5 Cu     6.432904    3.714039   15.000000    ( 0.0000,  0.0000,  0.0000)
   6 Cu     2.573162    5.942462   15.000000    ( 0.0000,  0.0000,  0.0000)
   7 Cu     5.146323    5.942462   15.000000    ( 0.0000,  0.0000,  0.0000)
   8 Cu     7.719485    5.942462   15.000000    ( 0.0000,  0.0000,  0.0000)
   9 Cu     0.000000    0.000000   17.100978    ( 0.0000,  0.0000,  0.0000)
  10 Cu     2.573162    0.000000   17.100978    ( 0.0000,  0.0000,  0.0000)
  11 Cu     5.146323    0.000000   17.100978    ( 0.0000,  0.0000,  0.0000)
  12 Cu     1.286581    2.228423   17.100978    ( 0.0000,  0.0000,  0.0000)
  13 Cu     3.859742    2.228423   17.100978    ( 0.0000,  0.0000,  0.0000)
  14 Cu     6.432904    2.228423   17.100978    ( 0.0000,  0.0000,  0.0000)
  15 Cu     2.573162    4.456847   17.100978    ( 0.0000,  0.0000,  0.0000)
  16 Cu     5.146323    4.456847   17.100978    ( 0.0000,  0.0000,  0.0000)
  17 Cu     7.719485    4.456847   17.100978    ( 0.0000,  0.0000,  0.0000)
  18 Cu     1.286581    0.742808   19.201955    ( 0.0000,  0.0000,  0.0000)
  19 Cu     3.859742    0.742808   19.201955    ( 0.0000,  0.0000,  0.0000)
  20 Cu     6.432904    0.742808   19.201955    ( 0.0000,  0.0000,  0.0000)
  21 Cu     2.573162    2.971231   19.201955    ( 0.0000,  0.0000,  0.0000)
  22 Cu     5.146323    2.971231   19.201955    ( 0.0000,  0.0000,  0.0000)
  23 Cu     7.719485    2.971231   19.201955    ( 0.0000,  0.0000,  0.0000)
  24 Cu     3.859742    5.199654   19.201955    ( 0.0000,  0.0000,  0.0000)
  25 Cu     6.432904    5.199654   19.201955    ( 0.0000,  0.0000,  0.0000)
  26 Cu     9.006066    5.199654   19.201955    ( 0.0000,  0.0000,  0.0000)
  27 Cu     0.000000    1.485616   21.302933    ( 0.0000,  0.0000,  0.0000)
  28 Cu     2.573162    1.485616   21.302933    ( 0.0000,  0.0000,  0.0000)
  29 Cu     5.146323    1.485616   21.302933    ( 0.0000,  0.0000,  0.0000)
  30 Cu     1.286581    3.714039   21.302933    ( 0.0000,  0.0000,  0.0000)
  31 Cu     3.859742    3.714039   21.302933    ( 0.0000,  0.0000,  0.0000)
  32 Cu     6.432904    3.714039   21.302933    ( 0.0000,  0.0000,  0.0000)
  33 Cu     2.573162    5.942462   21.302933    ( 0.0000,  0.0000,  0.0000)
  34 Cu     5.146323    5.942462   21.302933    ( 0.0000,  0.0000,  0.0000)
  35 Cu     7.719485    5.942462   21.302933    ( 0.0000,  0.0000,  0.0000)
  36 Cu     0.000000    0.000000   23.403911    ( 0.0000,  0.0000,  0.0000)
  37 Cu     2.573162    0.000000   23.403911    ( 0.0000,  0.0000,  0.0000)
  38 Cu     5.146323    0.000000   23.403911    ( 0.0000,  0.0000,  0.0000)
  39 Cu     1.286581    2.228423   23.403911    ( 0.0000,  0.0000,  0.0000)
  40 Cu     3.859742    2.228423   23.403911    ( 0.0000,  0.0000,  0.0000)
  41 Cu     6.432904    2.228423   23.403911    ( 0.0000,  0.0000,  0.0000)
  42 Cu     2.573162    4.456847   23.403911    ( 0.0000,  0.0000,  0.0000)
  43 Cu     5.146323    4.456847   23.403911    ( 0.0000,  0.0000,  0.0000)
  44 Cu     7.719485    4.456847   23.403911    ( 0.0000,  0.0000,  0.0000)

Unit cell:
           periodic     x           y           z      points  spacing
  1. axis:    yes    7.719485    0.000000    0.000000    32     0.2089
  2. axis:    yes    3.859742    6.685270    0.000000    32     0.2089
  3. axis:    no     0.000000    0.000000   38.403911   192     0.2000

  Lengths:   7.719485   7.719485  38.403911
  Angles:   90.000000  90.000000  60.000000

Effective grid spacing dv^(1/3) = 0.2160

                     log10-error:    total        iterations:
           time      wfs    density  energy       fermi  poisson
iter:   1  12:23:03                -199.471012    3      1      
iter:   2  12:23:08         -1.12  -178.926059    34     1      
iter:   3  12:23:13         -1.22  -148.864485    35     1      
iter:   4  12:23:18         -1.71  -147.473218    33     1      
iter:   5  12:23:22         -1.87  -148.150617    3      1      
iter:   6  12:23:27         -2.03  -147.113587    36     1      
iter:   7  12:23:32         -2.11  -146.712999    35     1      
iter:   8  12:23:37         -2.22  -146.542034    3      1      
iter:   9  12:23:42         -2.24  -146.171279    4      1      
iter:  10  12:23:47         -2.45  -146.165614    34     1      
iter:  11  12:23:51         -2.62  -146.074476    3      1      
iter:  12  12:23:56         -2.70  -146.106488    3      1      
iter:  13  12:24:01         -2.78  -146.067341    4      1      
iter:  14  12:24:06         -2.86  -146.052722    3      1      
iter:  15  12:24:11         -3.12  -146.046343    3      1      
iter:  16  12:24:15         -3.36  -146.045217    3      1      
iter:  17  12:24:20         -3.68  -146.045028    3      1      
iter:  18  12:24:25         -3.82  -146.045107    3      1      
iter:  19  12:24:30         -3.92  -146.045048    2      1      
iter:  20  12:24:35         -3.92  -146.044933    2      1      
iter:  21  12:24:40         -4.10  -146.044878    3      1      

Converged after 21 iterations.

Dipole moment: (7.718964, 4.456546, 0.000440) |e|*Ang

Energy contributions relative to reference atoms: (reference = -2025965.332850)

Kinetic:       -880.560022
Potential:     +750.776831
External:        +0.000000
XC:             -18.599383
Entropy (-ST):   -0.520690
Local:           +2.598041
--------------------------
Free energy:   -146.305223
Extrapolated:  -146.044878

Dipole-layer corrected work functions: 4.464208, 4.462664 eV

Fermi level: -4.46344

Showing only first 2 kpts
 Kpt  Band  Eigenvalues  Occupancy
  0   245     -5.72888    0.22222
  0   246     -5.72885    0.22222
  0   247     -5.38663    0.22220
  0   248     -4.17745    0.01204

  1   245     -4.70110    0.40668
  1   246     -4.59032    0.34691
  1   247     -4.59029    0.34688
  1   248     -4.44702    0.20402


No gap

Forces in eV/Ang:
  0 Cu    0.00092   -0.00655    0.03739
  1 Cu   -0.00481   -0.00278    0.04047
  2 Cu    0.00360    0.00005    0.04046
  3 Cu   -0.00240   -0.00203    0.03954
  4 Cu    0.00185    0.00310    0.04046
  5 Cu    0.00043    0.00025    0.03953
  6 Cu    0.00793    0.00458    0.03741
  7 Cu   -0.00521    0.00407    0.03739
  8 Cu   -0.00296   -0.00107    0.03954
  9 Cu    0.00000    0.00000   -0.02000
 10 Cu    0.01172    0.00192   -0.01999
 11 Cu   -0.01172   -0.00111   -0.01998
 12 Cu    0.00752    0.00919   -0.01999
 13 Cu   -0.00248   -0.00143   -0.01785
 14 Cu   -0.00494    0.00775   -0.01999
 15 Cu   -0.00682   -0.00959   -0.01998
 16 Cu    0.00424   -0.00815   -0.01999
 17 Cu    0.00247    0.00143   -0.01593
 18 Cu   -0.00813   -0.00470    0.00102
 19 Cu    0.00285    0.00280   -0.00251
 20 Cu    0.00532   -0.00420    0.00102
 21 Cu    0.00385    0.00107   -0.00251
 22 Cu   -0.00205   -0.00118   -0.00249
 23 Cu   -0.00188   -0.00438    0.00056
 24 Cu   -0.00097    0.00671    0.00102
 25 Cu   -0.00473    0.00056    0.00056
 26 Cu    0.00580    0.00335    0.00054
 27 Cu    0.00099   -0.00526    0.01786
 28 Cu   -0.00669   -0.00386    0.01823
 29 Cu    0.00562   -0.00105    0.01823
 30 Cu   -0.00412   -0.00092    0.01518
 31 Cu    0.00190    0.00539    0.01823
 32 Cu    0.00230    0.00133    0.01518
 33 Cu    0.00688    0.00397    0.01786
 34 Cu   -0.00406    0.00348    0.01786
 35 Cu   -0.00286   -0.00311    0.01518
 36 Cu    0.00006    0.00004   -0.04428
 37 Cu    0.01067    0.00221   -0.04178
 38 Cu   -0.01053   -0.00083   -0.04177
 39 Cu    0.00725    0.00813   -0.04178
 40 Cu   -0.00243   -0.00140   -0.04210
 41 Cu   -0.00451    0.00665   -0.04178
 42 Cu   -0.00598   -0.00870   -0.04177
 43 Cu    0.00350   -0.00723   -0.04178
 44 Cu    0.00257    0.00148   -0.04448

System changes: positions 

Initializing position-dependent things.

Density initialized from wave functions
                                          
                                          
                                          
                                          
                                          
                Cu    Cu     Cu           
            Cu   CCu   CCu    Cu          
       Cu    Cu     Cu                    
             Cu    Cu    Cu               
        Cu    Cu    CCu   Cu    Cu        
                                          
               Cu     Cu    Cu            
           Cu   CCu   CCu    Cu           
            Cu    Cu    Cu                
                 Cu    Cu     Cu          
       Cu    Cu    CCu   Cu               
        Cu    Cu     Cu                   
                                          
                                          
                                          
                                          
                                          

Positions:
   0 Cu     0.000000    1.485615   15.000001    ( 0.0000,  0.0000,  0.0000)
   1 Cu     2.573161    1.485615   15.000001    ( 0.0000,  0.0000,  0.0000)
   2 Cu     5.146323    1.485616   15.000001    ( 0.0000,  0.0000,  0.0000)
   3 Cu     1.286581    3.714039   15.000001    ( 0.0000,  0.0000,  0.0000)
   4 Cu     3.859742    3.714039   15.000001    ( 0.0000,  0.0000,  0.0000)
   5 Cu     6.432904    3.714039   15.000001    ( 0.0000,  0.0000,  0.0000)
   6 Cu     2.573162    5.942462   15.000001    ( 0.0000,  0.0000,  0.0000)
   7 Cu     5.146323    5.942462   15.000001    ( 0.0000,  0.0000,  0.0000)
   8 Cu     7.719485    5.942462   15.000001    ( 0.0000,  0.0000,  0.0000)
   9 Cu     0.000000    0.000000   17.100977    ( 0.0000,  0.0000,  0.0000)
  10 Cu     2.573162    0.000000   17.100977    ( 0.0000,  0.0000,  0.0000)
  11 Cu     5.146323   -0.000000   17.100977    ( 0.0000,  0.0000,  0.0000)
  12 Cu     1.286581    2.228423   17.100977    ( 0.0000,  0.0000,  0.0000)
  13 Cu     3.859742    2.228423   17.100977    ( 0.0000,  0.0000,  0.0000)
  14 Cu     6.432904    2.228423   17.100977    ( 0.0000,  0.0000,  0.0000)
  15 Cu     2.573161    4.456846   17.100977    ( 0.0000,  0.0000,  0.0000)
  16 Cu     5.146323    4.456846   17.100977    ( 0.0000,  0.0000,  0.0000)
  17 Cu     7.719485    4.456847   17.100977    ( 0.0000,  0.0000,  0.0000)
  18 Cu     1.286581    0.742808   19.201955    ( 0.0000,  0.0000,  0.0000)
  19 Cu     3.859742    0.742808   19.201955    ( 0.0000,  0.0000,  0.0000)
  20 Cu     6.432904    0.742808   19.201955    ( 0.0000,  0.0000,  0.0000)
  21 Cu     2.573162    2.971231   19.201955    ( 0.0000,  0.0000,  0.0000)
  22 Cu     5.146323    2.971231   19.201955    ( 0.0000,  0.0000,  0.0000)
  23 Cu     7.719485    2.971231   19.201955    ( 0.0000,  0.0000,  0.0000)
  24 Cu     3.859742    5.199654   19.201955    ( 0.0000,  0.0000,  0.0000)
  25 Cu     6.432904    5.199654   19.201955    ( 0.0000,  0.0000,  0.0000)
  26 Cu     9.006066    5.199654   19.201955    ( 0.0000,  0.0000,  0.0000)
  27 Cu     0.000000    1.485615   21.302933    ( 0.0000,  0.0000,  0.0000)
  28 Cu     2.573161    1.485615   21.302933    ( 0.0000,  0.0000,  0.0000)
  29 Cu     5.146323    1.485616   21.302933    ( 0.0000,  0.0000,  0.0000)
  30 Cu     1.286581    3.714039   21.302933    ( 0.0000,  0.0000,  0.0000)
  31 Cu     3.859742    3.714039   21.302933    ( 0.0000,  0.0000,  0.0000)
  32 Cu     6.432904    3.714039   21.302933    ( 0.0000,  0.0000,  0.0000)
  33 Cu     2.573162    5.942462   21.302933    ( 0.0000,  0.0000,  0.0000)
  34 Cu     5.146323    5.942462   21.302933    ( 0.0000,  0.0000,  0.0000)
  35 Cu     7.719485    5.942462   21.302933    ( 0.0000,  0.0000,  0.0000)
  36 Cu     0.000000    0.000000   23.403910    ( 0.0000,  0.0000,  0.0000)
  37 Cu     2.573162    0.000000   23.403910    ( 0.0000,  0.0000,  0.0000)
  38 Cu     5.146323   -0.000000   23.403910    ( 0.0000,  0.0000,  0.0000)
  39 Cu     1.286581    2.228423   23.403910    ( 0.0000,  0.0000,  0.0000)
  40 Cu     3.859742    2.228423   23.403910    ( 0.0000,  0.0000,  0.0000)
  41 Cu     6.432904    2.228423   23.403910    ( 0.0000,  0.0000,  0.0000)
  42 Cu     2.573161    4.456846   23.403910    ( 0.0000,  0.0000,  0.0000)
  43 Cu     5.146323    4.456846   23.403910    ( 0.0000,  0.0000,  0.0000)
  44 Cu     7.719485    4.456847   23.403910    ( 0.0000,  0.0000,  0.0000)

Unit cell:
           periodic     x           y           z      points  spacing
  1. axis:    yes    7.719485    0.000000    0.000000    32     0.2089
  2. axis:    yes    3.859742    6.685270    0.000000    32     0.2089
  3. axis:    no     0.000000    0.000000   38.403911   192     0.2000

  Lengths:   7.719485   7.719485  38.403911
  Angles:   90.000000  90.000000  60.000000

Effective grid spacing dv^(1/3) = 0.2160

                     log10-error:    total        iterations:
           time      wfs    density  energy       fermi  poisson
iter:   1  12:25:09                -146.049513    3      1      
iter:   2  12:25:14         -3.36  -146.055117    3      1      
iter:   3  12:25:19         -3.23  -146.044912    2      1      
iter:   4  12:25:24         -4.05  -146.044783    2      1      

Converged after 4 iterations.

Dipole moment: (7.715785, 4.454710, -0.000545) |e|*Ang

Energy contributions relative to reference atoms: (reference = -2025965.332850)

Kinetic:       -879.778300
Potential:     +750.174392
External:        +0.000000
XC:             -18.861012
Entropy (-ST):   -0.520879
Local:           +2.680576
--------------------------
Free energy:   -146.305223
Extrapolated:  -146.044783

Dipole-layer corrected work functions: 4.457069, 4.458981 eV

Fermi level: -4.45803

Showing only first 2 kpts
 Kpt  Band  Eigenvalues  Occupancy
  0   245     -5.72248    0.22222
  0   246     -5.72244    0.22222
  0   247     -5.38242    0.22220
  0   248     -4.17246    0.01209

  1   245     -4.69516    0.40650
  1   246     -4.58493    0.34692
  1   247     -4.58490    0.34690
  1   248     -4.44170    0.20413


No gap

Forces in eV/Ang:
  0 Cu    0.00092   -0.00654    0.04883
  1 Cu   -0.00480   -0.00277    0.05190
  2 Cu    0.00359    0.00006    0.05189
  3 Cu   -0.00239   -0.00204    0.05097
  4 Cu    0.00185    0.00308    0.05189
  5 Cu    0.00042    0.00024    0.05096
  6 Cu    0.00793    0.00458    0.04884
  7 Cu   -0.00521    0.00407    0.04883
  8 Cu   -0.00296   -0.00105    0.05097
  9 Cu    0.00000    0.00000   -0.03534
 10 Cu    0.01169    0.00192   -0.03533
 11 Cu   -0.01169   -0.00111   -0.03532
 12 Cu    0.00751    0.00917   -0.03533
 13 Cu   -0.00248   -0.00143   -0.03319
 14 Cu   -0.00492    0.00773   -0.03533
 15 Cu   -0.00681   -0.00957   -0.03532
 16 Cu    0.00423   -0.00813   -0.03533
 17 Cu    0.00247    0.00143   -0.03128
 18 Cu   -0.00813   -0.00469    0.00256
 19 Cu    0.00285    0.00280   -0.00096
 20 Cu    0.00532   -0.00420    0.00256
 21 Cu    0.00385    0.00107   -0.00096
 22 Cu   -0.00204   -0.00118   -0.00094
 23 Cu   -0.00188   -0.00437    0.00211
 24 Cu   -0.00097    0.00670    0.00256
 25 Cu   -0.00472    0.00055    0.00211
 26 Cu    0.00579    0.00334    0.00208
 27 Cu    0.00099   -0.00525    0.03582
 28 Cu   -0.00667   -0.00385    0.03619
 29 Cu    0.00559   -0.00104    0.03619
 30 Cu   -0.00411   -0.00093    0.03314
 31 Cu    0.00190    0.00536    0.03619
 32 Cu    0.00229    0.00132    0.03314
 33 Cu    0.00688    0.00397    0.03582
 34 Cu   -0.00405    0.00348    0.03582
 35 Cu   -0.00286   -0.00309    0.03314
 36 Cu    0.00006    0.00004   -0.04918
 37 Cu    0.01065    0.00221   -0.04668
 38 Cu   -0.01051   -0.00083   -0.04667
 39 Cu    0.00724    0.00812   -0.04668
 40 Cu   -0.00243   -0.00140   -0.04701
 41 Cu   -0.00450    0.00663   -0.04668
 42 Cu   -0.00597   -0.00869   -0.04667
 43 Cu    0.00349   -0.00721   -0.04668
 44 Cu    0.00257    0.00148   -0.04939

System changes: positions 

Initializing position-dependent things.

Density initialized from wave functions
                                          
                                          
                                          
                                          
                                          
                Cu    Cu     Cu           
            Cu   CCu   CCu    Cu          
       Cu    Cu     Cu                    
             Cu    Cu    Cu               
        Cu    Cu    CCu   Cu    Cu        
                                          
               Cu     Cu    Cu            
           Cu   CCu   CCu    Cu           
            Cu    Cu    Cu                
                 Cu    Cu     Cu          
       Cu    Cu    CCu   Cu               
        Cu    Cu     Cu                   
                                          
                                          
                                          
                                          
                                          

Positions:
   0 Cu     0.000000    1.485615   15.000003    ( 0.0000,  0.0000,  0.0000)
   1 Cu     2.573161    1.485615   15.000004    ( 0.0000,  0.0000,  0.0000)
   2 Cu     5.146323    1.485616   15.000004    ( 0.0000,  0.0000,  0.0000)
   3 Cu     1.286581    3.714039   15.000003    ( 0.0000,  0.0000,  0.0000)
   4 Cu     3.859743    3.714039   15.000004    ( 0.0000,  0.0000,  0.0000)
   5 Cu     6.432904    3.714039   15.000003    ( 0.0000,  0.0000,  0.0000)
   6 Cu     2.573162    5.942462   15.000003    ( 0.0000,  0.0000,  0.0000)
   7 Cu     5.146323    5.942462   15.000003    ( 0.0000,  0.0000,  0.0000)
   8 Cu     7.719485    5.942462   15.000003    ( 0.0000,  0.0000,  0.0000)
   9 Cu     0.000000    0.000000   17.100976    ( 0.0000,  0.0000,  0.0000)
  10 Cu     2.573162    0.000000   17.100976    ( 0.0000,  0.0000,  0.0000)
  11 Cu     5.146322   -0.000000   17.100976    ( 0.0000,  0.0000,  0.0000)
  12 Cu     1.286581    2.228424   17.100976    ( 0.0000,  0.0000,  0.0000)
  13 Cu     3.859742    2.228423   17.100976    ( 0.0000,  0.0000,  0.0000)
  14 Cu     6.432904    2.228424   17.100976    ( 0.0000,  0.0000,  0.0000)
  15 Cu     2.573161    4.456846   17.100976    ( 0.0000,  0.0000,  0.0000)
  16 Cu     5.146323    4.456846   17.100976    ( 0.0000,  0.0000,  0.0000)
  17 Cu     7.719485    4.456847   17.100976    ( 0.0000,  0.0000,  0.0000)
  18 Cu     1.286580    0.742807   19.201955    ( 0.0000,  0.0000,  0.0000)
  19 Cu     3.859743    0.742808   19.201955    ( 0.0000,  0.0000,  0.0000)
  20 Cu     6.432904    0.742807   19.201955    ( 0.0000,  0.0000,  0.0000)
  21 Cu     2.573162    2.971231   19.201955    ( 0.0000,  0.0000,  0.0000)
  22 Cu     5.146323    2.971231   19.201955    ( 0.0000,  0.0000,  0.0000)
  23 Cu     7.719485    2.971231   19.201955    ( 0.0000,  0.0000,  0.0000)
  24 Cu     3.859742    5.199655   19.201955    ( 0.0000,  0.0000,  0.0000)
  25 Cu     6.432904    5.199654   19.201955    ( 0.0000,  0.0000,  0.0000)
  26 Cu     9.006066    5.199655   19.201955    ( 0.0000,  0.0000,  0.0000)
  27 Cu     0.000000    1.485615   21.302935    ( 0.0000,  0.0000,  0.0000)
  28 Cu     2.573161    1.485615   21.302935    ( 0.0000,  0.0000,  0.0000)
  29 Cu     5.146324    1.485615   21.302935    ( 0.0000,  0.0000,  0.0000)
  30 Cu     1.286580    3.714039   21.302935    ( 0.0000,  0.0000,  0.0000)
  31 Cu     3.859743    3.714039   21.302935    ( 0.0000,  0.0000,  0.0000)
  32 Cu     6.432904    3.714039   21.302935    ( 0.0000,  0.0000,  0.0000)
  33 Cu     2.573162    5.942462   21.302935    ( 0.0000,  0.0000,  0.0000)
  34 Cu     5.146323    5.942462   21.302935    ( 0.0000,  0.0000,  0.0000)
  35 Cu     7.719485    5.942462   21.302935    ( 0.0000,  0.0000,  0.0000)
  36 Cu     0.000000    0.000000   23.403907    ( 0.0000,  0.0000,  0.0000)
  37 Cu     2.573162    0.000000   23.403907    ( 0.0000,  0.0000,  0.0000)
  38 Cu     5.146322   -0.000000   23.403907    ( 0.0000,  0.0000,  0.0000)
  39 Cu     1.286581    2.228424   23.403907    ( 0.0000,  0.0000,  0.0000)
  40 Cu     3.859742    2.228423   23.403907    ( 0.0000,  0.0000,  0.0000)
  41 Cu     6.432904    2.228424   23.403907    ( 0.0000,  0.0000,  0.0000)
  42 Cu     2.573161    4.456846   23.403907    ( 0.0000,  0.0000,  0.0000)
  43 Cu     5.146323    4.456846   23.403907    ( 0.0000,  0.0000,  0.0000)
  44 Cu     7.719485    4.456847   23.316778    ( 0.0000,  0.0000,  0.0000)

Unit cell:
           periodic     x           y           z      points  spacing
  1. axis:    yes    7.719485    0.000000    0.000000    32     0.2089
  2. axis:    yes    3.859742    6.685270    0.000000    32     0.2089
  3. axis:    no     0.000000    0.000000   38.403911   192     0.2000

  Lengths:   7.719485   7.719485  38.403911
  Angles:   90.000000  90.000000  60.000000

Effective grid spacing dv^(1/3) = 0.2160

                     log10-error:    total        iterations:
           time      wfs    density  energy       fermi  poisson
iter:   1  12:25:54                -146.038942    3      1      
iter:   2  12:25:59         -3.57  -146.034834    3      1      
iter:   3  12:26:03         -3.76  -146.033092    3      1      
iter:   4  12:26:08         -3.96  -146.033078    2      1      
iter:   5  12:26:13         -3.78  -146.032713    2      1      
iter:   6  12:26:18         -4.16  -146.032477    2      1      

Converged after 6 iterations.

Dipole moment: (7.726341, 4.460805, -0.000612) |e|*Ang

Energy contributions relative to reference atoms: (reference = -2025965.332850)

Kinetic:       -880.137322
Potential:     +750.645263
External:        +0.000000
XC:             -18.994884
Entropy (-ST):   -0.521185
Local:           +2.715059
--------------------------
Free energy:   -146.293069
Extrapolated:  -146.032477

Dipole-layer corrected work functions: 4.457853, 4.460000 eV

Fermi level: -4.45893

Showing only first 2 kpts
 Kpt  Band  Eigenvalues  Occupancy
  0   245     -5.72387    0.22222
  0   246     -5.71783    0.22222
  0   247     -5.37995    0.22220
  0   248     -4.17608    0.01240

  1   245     -4.69931    0.40761
  1   246     -4.58457    0.34596
  1   247     -4.58102    0.34322
  1   248     -4.44469    0.20643


No gap

Forces in eV/Ang:
  0 Cu    0.00092   -0.00661    0.04578
  1 Cu   -0.00377   -0.00218    0.04575
  2 Cu    0.00256    0.00065    0.04573
  3 Cu   -0.00101   -0.00283    0.05068
  4 Cu    0.00185    0.00189    0.04573
  5 Cu   -0.00096   -0.00055    0.05067
  6 Cu    0.00798    0.00461    0.04580
  7 Cu   -0.00526    0.00410    0.04578
  8 Cu   -0.00296    0.00054    0.05068
  9 Cu    0.00000    0.00000   -0.03118
 10 Cu    0.01247    0.00118   -0.02975
 11 Cu   -0.01247   -0.00184   -0.02974
 12 Cu    0.00726    0.01021   -0.02975
 13 Cu   -0.00248   -0.00143   -0.03467
 14 Cu   -0.00468    0.00877   -0.02975
 15 Cu   -0.00783   -0.00988   -0.02974
 16 Cu    0.00526   -0.00844   -0.02975
 17 Cu    0.00247    0.00143   -0.02558
 18 Cu   -0.00597   -0.00345    0.00648
 19 Cu    0.00285   -0.00056   -0.00056
 20 Cu    0.00316   -0.00295    0.00648
 21 Cu    0.00094    0.00275   -0.00056
 22 Cu    0.00086    0.00050   -0.00054
 23 Cu   -0.00188    0.00056   -0.00195
 24 Cu   -0.00097    0.00422    0.00648
 25 Cu   -0.00046   -0.00191   -0.00195
 26 Cu    0.00153    0.00088   -0.00198
 27 Cu    0.00098   -0.00229    0.03268
 28 Cu   -0.00611   -0.00353    0.03005
 29 Cu    0.00504   -0.00072    0.03005
 30 Cu    0.09185   -0.05639   -0.11106
 31 Cu    0.00190    0.00472    0.03005
 32 Cu   -0.09361   -0.05405   -0.11105
 33 Cu    0.00434    0.00250    0.03268
 34 Cu   -0.00149    0.00200    0.03268
 35 Cu   -0.00291    0.10774   -0.11106
 36 Cu    0.00006    0.00004   -0.03410
 37 Cu    0.00379    0.01651   -0.03176
 38 Cu   -0.00365    0.01346   -0.03168
 39 Cu    0.01619   -0.00498   -0.03176
 40 Cu   -0.00243   -0.00140   -0.03206
 41 Cu   -0.01344   -0.00644   -0.03169
 42 Cu    0.00983   -0.00989   -0.03168
 43 Cu   -0.01230   -0.00842   -0.03169
 44 Cu    0.00256    0.00148    0.32244

System changes: positions 

Initializing position-dependent things.

Density initialized from wave functions
                                          
                                          
                                          
                                          
                                          
                Cu    Cu     Cu           
            Cu   CCu   CCu    Cu          
       Cu    Cu     Cu                    
             Cu    Cu    Cu               
        Cu    Cu    CCu   Cu    Cu        
                                          
               Cu     Cu    Cu            
           Cu   CCu   CCu    Cu           
            Cu    Cu    Cu                
                 Cu    Cu     Cu          
       Cu    Cu    CCu   Cu               
        Cu    Cu     Cu                   
                                          
                                          
                                          
                                          
                                          

Positions:
   0 Cu     0.000000    1.485614   15.000008    ( 0.0000,  0.0000,  0.0000)
   1 Cu     2.573161    1.485615   15.000008    ( 0.0000,  0.0000,  0.0000)
   2 Cu     5.146324    1.485616   15.000008    ( 0.0000,  0.0000,  0.0000)
   3 Cu     1.286580    3.714038   15.000008    ( 0.0000,  0.0000,  0.0000)
   4 Cu     3.859743    3.714039   15.000008    ( 0.0000,  0.0000,  0.0000)
   5 Cu     6.432904    3.714039   15.000008    ( 0.0000,  0.0000,  0.0000)
   6 Cu     2.573163    5.942463   15.000008    ( 0.0000,  0.0000,  0.0000)
   7 Cu     5.146322    5.942463   15.000008    ( 0.0000,  0.0000,  0.0000)
   8 Cu     7.719484    5.942462   15.000008    ( 0.0000,  0.0000,  0.0000)
   9 Cu     0.000000    0.000000   17.100973    ( 0.0000,  0.0000,  0.0000)
  10 Cu     2.573164    0.000000   17.100973    ( 0.0000,  0.0000,  0.0000)
  11 Cu     5.146321   -0.000000   17.100973    ( 0.0000,  0.0000,  0.0000)
  12 Cu     1.286582    2.228425   17.100973    ( 0.0000,  0.0000,  0.0000)
  13 Cu     3.859742    2.228423   17.100973    ( 0.0000,  0.0000,  0.0000)
  14 Cu     6.432903    2.228425   17.100973    ( 0.0000,  0.0000,  0.0000)
  15 Cu     2.573160    4.456845   17.100973    ( 0.0000,  0.0000,  0.0000)
  16 Cu     5.146324    4.456845   17.100973    ( 0.0000,  0.0000,  0.0000)
  17 Cu     7.719485    4.456847   17.100973    ( 0.0000,  0.0000,  0.0000)
  18 Cu     1.286579    0.742807   19.201956    ( 0.0000,  0.0000,  0.0000)
  19 Cu     3.859743    0.742808   19.201955    ( 0.0000,  0.0000,  0.0000)
  20 Cu     6.432905    0.742807   19.201956    ( 0.0000,  0.0000,  0.0000)
  21 Cu     2.573162    2.971231   19.201955    ( 0.0000,  0.0000,  0.0000)
  22 Cu     5.146323    2.971231   19.201955    ( 0.0000,  0.0000,  0.0000)
  23 Cu     7.719484    2.971230   19.201955    ( 0.0000,  0.0000,  0.0000)
  24 Cu     3.859742    5.199655   19.201956    ( 0.0000,  0.0000,  0.0000)
  25 Cu     6.432903    5.199654   19.201955    ( 0.0000,  0.0000,  0.0000)
  26 Cu     9.006066    5.199655   19.201955    ( 0.0000,  0.0000,  0.0000)
  27 Cu     0.000000    1.485615   21.302938    ( 0.0000,  0.0000,  0.0000)
  28 Cu     2.573160    1.485615   21.302938    ( 0.0000,  0.0000,  0.0000)
  29 Cu     5.146324    1.485615   21.302938    ( 0.0000,  0.0000,  0.0000)
  30 Cu     1.286584    3.714037   21.302932    ( 0.0000,  0.0000,  0.0000)
  31 Cu     3.859743    3.714040   21.302938    ( 0.0000,  0.0000,  0.0000)
  32 Cu     6.432901    3.714037   21.302932    ( 0.0000,  0.0000,  0.0000)
  33 Cu     2.573163    5.942463   21.302938    ( 0.0000,  0.0000,  0.0000)
  34 Cu     5.146323    5.942463   21.302938    ( 0.0000,  0.0000,  0.0000)
  35 Cu     7.719484    5.942466   21.302932    ( 0.0000,  0.0000,  0.0000)
  36 Cu     0.000000    0.000000   23.403903    ( 0.0000,  0.0000,  0.0000)
  37 Cu     2.573163    0.000001   23.403903    ( 0.0000,  0.0000,  0.0000)
  38 Cu     5.146322    0.000000   23.403903    ( 0.0000,  0.0000,  0.0000)
  39 Cu     1.286582    2.228424   23.403903    ( 0.0000,  0.0000,  0.0000)
  40 Cu     3.859742    2.228423   23.403903    ( 0.0000,  0.0000,  0.0000)
  41 Cu     6.432903    2.228424   23.403903    ( 0.0000,  0.0000,  0.0000)
  42 Cu     2.573161    4.456845   23.403903    ( 0.0000,  0.0000,  0.0000)
  43 Cu     5.146323    4.456845   23.403903    ( 0.0000,  0.0000,  0.0000)
  44 Cu     7.719485    4.456847   23.229659    ( 0.0000,  0.0000,  0.0000)

Unit cell:
           periodic     x           y           z      points  spacing
  1. axis:    yes    7.719485    0.000000    0.000000    32     0.2089
  2. axis:    yes    3.859742    6.685270    0.000000    32     0.2089
  3. axis:    no     0.000000    0.000000   38.403911   192     0.2000

  Lengths:   7.719485   7.719485  38.403911
  Angles:   90.000000  90.000000  60.000000

Effective grid spacing dv^(1/3) = 0.2160

                     log10-error:    total        iterations:
           time      wfs    density  energy       fermi  poisson
iter:   1  12:26:48                -145.997688    3      1      
iter:   2  12:26:53         -3.11  -146.015652    3      1      
iter:   3  12:26:58         -3.00  -145.982822    2      1      
iter:   4  12:27:03         -3.66  -145.981745    2      1      
iter:   5  12:27:09         -4.03  -145.981806    3      1      

Converged after 5 iterations.

Dipole moment: (7.741480, 4.469545, -0.000802) |e|*Ang

Energy contributions relative to reference atoms: (reference = -2025965.332850)

Kinetic:       -879.947523
Potential:     +750.651060
External:        +0.000000
XC:             -19.183070
Entropy (-ST):   -0.521113
Local:           +2.758283
--------------------------
Free energy:   -146.242363
Extrapolated:  -145.981806

Dipole-layer corrected work functions: 4.455615, 4.458427 eV

Fermi level: -4.45702

Showing only first 2 kpts
 Kpt  Band  Eigenvalues  Occupancy
  0   245     -5.72095    0.22222
  0   246     -5.71289    0.22222
  0   247     -5.37306    0.22220
  0   248     -4.17631    0.01265

  1   245     -4.69787    0.40776
  1   246     -4.58260    0.34591
  1   247     -4.57491    0.33989
  1   248     -4.44473    0.20858


No gap

Forces in eV/Ang:
  0 Cu    0.00091   -0.00512    0.04850
  1 Cu   -0.00420   -0.00243    0.04786
  2 Cu    0.00299    0.00040    0.04785
  3 Cu   -0.00248   -0.00198    0.05304
  4 Cu    0.00184    0.00239    0.04785
  5 Cu    0.00051    0.00029    0.05302
  6 Cu    0.00670    0.00387    0.04852
  7 Cu   -0.00398    0.00335    0.04850
  8 Cu   -0.00295   -0.00115    0.05304
  9 Cu    0.00000    0.00000   -0.02618
 10 Cu    0.01373   -0.00035   -0.02283
 11 Cu   -0.01373   -0.00337   -0.02283
 12 Cu    0.00656    0.01206   -0.02283
 13 Cu   -0.00247   -0.00143   -0.03289
 14 Cu   -0.00399    0.01063   -0.02283
 15 Cu   -0.00978   -0.01020   -0.02283
 16 Cu    0.00721   -0.00876   -0.02283
 17 Cu    0.00247    0.00142   -0.02199
 18 Cu   -0.00658   -0.00380    0.00675
 19 Cu    0.00285    0.00526   -0.00712
 20 Cu    0.00378   -0.00331    0.00675
 21 Cu    0.00598   -0.00017   -0.00712
 22 Cu   -0.00417   -0.00241   -0.00710
 23 Cu   -0.00188   -0.00335   -0.01708
 24 Cu   -0.00097    0.00493    0.00675
 25 Cu   -0.00384    0.00004   -0.01708
 26 Cu    0.00491    0.00283   -0.01711
 27 Cu    0.00098   -0.00778    0.03695
 28 Cu   -0.00592   -0.00342    0.03146
 29 Cu    0.00484   -0.00061    0.03146
 30 Cu    0.21854   -0.12960   -0.26304
 31 Cu    0.00189    0.00449    0.03146
 32 Cu   -0.22022   -0.12714   -0.26299
 33 Cu    0.00910    0.00526    0.03694
 34 Cu   -0.00624    0.00474    0.03695
 35 Cu   -0.00297    0.25406   -0.26304
 36 Cu    0.00006    0.00004   -0.02073
 37 Cu   -0.00387    0.02970   -0.02233
 38 Cu    0.00401    0.02666   -0.02219
 39 Cu    0.02379   -0.01820   -0.02233
 40 Cu   -0.00242   -0.00140   -0.01736
 41 Cu   -0.02104   -0.01966   -0.02220
 42 Cu    0.02509   -0.00986   -0.02219
 43 Cu   -0.02755   -0.00839   -0.02220
 44 Cu    0.00253    0.00146    0.75885

System changes: positions 

Initializing position-dependent things.

Density initialized from wave functions
                                          
                                          
                                          
                                          
                                          
                Cu    Cu     Cu           
            Cu   CCu   CCu    Cu          
       Cu    Cu     Cu                    
             Cu    Cu    Cu               
        Cu    Cu    CCu   Cu    Cu        
                                          
               Cu     Cu    Cu            
           Cu   CCu   CCu    Cu           
            Cu    Cu    Cu                
                 Cu    Cu     Cu          
       Cu    Cu    CCu   Cu               
        Cu    Cu     Cu                   
                                          
                                          
                                          
                                          
                                          

Positions:
   0 Cu     0.000000    1.485614   15.000014    ( 0.0000,  0.0000,  0.0000)
   1 Cu     2.573160    1.485615   15.000014    ( 0.0000,  0.0000,  0.0000)
   2 Cu     5.146324    1.485616   15.000014    ( 0.0000,  0.0000,  0.0000)
   3 Cu     1.286580    3.714038   15.000015    ( 0.0000,  0.0000,  0.0000)
   4 Cu     3.859743    3.714040   15.000014    ( 0.0000,  0.0000,  0.0000)
   5 Cu     6.432904    3.714039   15.000015    ( 0.0000,  0.0000,  0.0000)
   6 Cu     2.573164    5.942463   15.000014    ( 0.0000,  0.0000,  0.0000)
   7 Cu     5.146322    5.942463   15.000014    ( 0.0000,  0.0000,  0.0000)
   8 Cu     7.719484    5.942462   15.000015    ( 0.0000,  0.0000,  0.0000)
   9 Cu     0.000000    0.000000   17.100969    ( 0.0000,  0.0000,  0.0000)
  10 Cu     2.573165    0.000000   17.100969    ( 0.0000,  0.0000,  0.0000)
  11 Cu     5.146319   -0.000000   17.100969    ( 0.0000,  0.0000,  0.0000)
  12 Cu     1.286583    2.228426   17.100969    ( 0.0000,  0.0000,  0.0000)
  13 Cu     3.859742    2.228423   17.100969    ( 0.0000,  0.0000,  0.0000)
  14 Cu     6.432903    2.228426   17.100969    ( 0.0000,  0.0000,  0.0000)
  15 Cu     2.573159    4.456844   17.100969    ( 0.0000,  0.0000,  0.0000)
  16 Cu     5.146325    4.456844   17.100969    ( 0.0000,  0.0000,  0.0000)
  17 Cu     7.719485    4.456847   17.100970    ( 0.0000,  0.0000,  0.0000)
  18 Cu     1.286579    0.742806   19.201956    ( 0.0000,  0.0000,  0.0000)
  19 Cu     3.859743    0.742808   19.201955    ( 0.0000,  0.0000,  0.0000)
  20 Cu     6.432905    0.742807   19.201956    ( 0.0000,  0.0000,  0.0000)
  21 Cu     2.573163    2.971231   19.201955    ( 0.0000,  0.0000,  0.0000)
  22 Cu     5.146323    2.971231   19.201955    ( 0.0000,  0.0000,  0.0000)
  23 Cu     7.719484    2.971230   19.201955    ( 0.0000,  0.0000,  0.0000)
  24 Cu     3.859742    5.199656   19.201956    ( 0.0000,  0.0000,  0.0000)
  25 Cu     6.432903    5.199654   19.201955    ( 0.0000,  0.0000,  0.0000)
  26 Cu     9.006067    5.199655   19.201955    ( 0.0000,  0.0000,  0.0000)
  27 Cu     0.000000    1.485614   21.302942    ( 0.0000,  0.0000,  0.0000)
  28 Cu     2.573160    1.485614   21.302942    ( 0.0000,  0.0000,  0.0000)
  29 Cu     5.146325    1.485615   21.302942    ( 0.0000,  0.0000,  0.0000)
  30 Cu     1.286595    3.714029   21.302919    ( 0.0000,  0.0000,  0.0000)
  31 Cu     3.859743    3.714040   21.302942    ( 0.0000,  0.0000,  0.0000)
  32 Cu     6.432889    3.714030   21.302919    ( 0.0000,  0.0000,  0.0000)
  33 Cu     2.573164    5.942463   21.302942    ( 0.0000,  0.0000,  0.0000)
  34 Cu     5.146322    5.942463   21.302942    ( 0.0000,  0.0000,  0.0000)
  35 Cu     7.719484    5.942479   21.302919    ( 0.0000,  0.0000,  0.0000)
  36 Cu     0.000000    0.000000   23.403898    ( 0.0000,  0.0000,  0.0000)
  37 Cu     2.573164    0.000003   23.403899    ( 0.0000,  0.0000,  0.0000)
  38 Cu     5.146321    0.000002   23.403899    ( 0.0000,  0.0000,  0.0000)
  39 Cu     1.286584    2.228424   23.403899    ( 0.0000,  0.0000,  0.0000)
  40 Cu     3.859742    2.228423   23.403899    ( 0.0000,  0.0000,  0.0000)
  41 Cu     6.432901    2.228423   23.403899    ( 0.0000,  0.0000,  0.0000)
  42 Cu     2.573162    4.456844   23.403899    ( 0.0000,  0.0000,  0.0000)
  43 Cu     5.146322    4.456844   23.403899    ( 0.0000,  0.0000,  0.0000)
  44 Cu     7.719486    4.456847   23.142568    ( 0.0000,  0.0000,  0.0000)

Unit cell:
           periodic     x           y           z      points  spacing
  1. axis:    yes    7.719485    0.000000    0.000000    32     0.2089
  2. axis:    yes    3.859742    6.685270    0.000000    32     0.2089
  3. axis:    no     0.000000    0.000000   38.403911   192     0.2000

  Lengths:   7.719485   7.719485  38.403911
  Angles:   90.000000  90.000000  60.000000

Effective grid spacing dv^(1/3) = 0.2160

                     log10-error:    total        iterations:
           time      wfs    density  energy       fermi  poisson
iter:   1  12:27:38                -146.028382    3      1      
iter:   2  12:27:43         -2.66  -146.203272    3      1      
iter:   3  12:27:48         -2.50  -145.884742    3      1      
iter:   4  12:27:53         -3.53  -145.879795    3      1      
iter:   5  12:27:58         -3.76  -145.878620    3      1      
iter:   6  12:28:03         -4.06  -145.878498    2      1      

Converged after 6 iterations.

Dipole moment: (7.756226, 4.478059, 0.003345) |e|*Ang

Energy contributions relative to reference atoms: (reference = -2025965.332850)

Kinetic:       -877.296624
Potential:     +748.476770
External:        +0.000000
XC:             -19.573356
Entropy (-ST):   -0.520720
Local:           +2.775072
--------------------------
Free energy:   -146.138858
Extrapolated:  -145.878498

Dipole-layer corrected work functions: 4.458056, 4.446326 eV

Fermi level: -4.45219

Showing only first 2 kpts
 Kpt  Band  Eigenvalues  Occupancy
  0   245     -5.71373    0.22222
  0   246     -5.70319    0.22222
  0   247     -5.36230    0.22220
  0   248     -4.17441    0.01301

  1   245     -4.69135    0.40719
  1   246     -4.57828    0.34630
  1   247     -4.56693    0.33735
  1   248     -4.44095    0.20974


No gap

Forces in eV/Ang:
  0 Cu    0.00091   -0.00492    0.04541
  1 Cu   -0.00375   -0.00217    0.04271
  2 Cu    0.00254    0.00066    0.04269
  3 Cu   -0.00242   -0.00201    0.05135
  4 Cu    0.00184    0.00187    0.04269
  5 Cu    0.00045    0.00026    0.05133
  6 Cu    0.00651    0.00376    0.04542
  7 Cu   -0.00380    0.00325    0.04541
  8 Cu   -0.00295   -0.00109    0.05135
  9 Cu    0.00000    0.00000   -0.02687
 10 Cu    0.01269    0.00072   -0.02499
 11 Cu   -0.01269   -0.00230   -0.02499
 12 Cu    0.00697    0.01063   -0.02499
 13 Cu   -0.00247   -0.00143   -0.03610
 14 Cu   -0.00440    0.00920   -0.02499
 15 Cu   -0.00834   -0.00984   -0.02499
 16 Cu    0.00577   -0.00841   -0.02499
 17 Cu    0.00246    0.00142   -0.02865
 18 Cu   -0.00571   -0.00330    0.00716
 19 Cu    0.00284    0.00477   -0.00908
 20 Cu    0.00291   -0.00280    0.00716
 21 Cu    0.00555    0.00007   -0.00908
 22 Cu   -0.00375   -0.00216   -0.00906
 23 Cu   -0.00188   -0.00410   -0.02341
 24 Cu   -0.00097    0.00392    0.00716
 25 Cu   -0.00449    0.00042   -0.02341
 26 Cu    0.00555    0.00321   -0.02344
 27 Cu    0.00098   -0.00707    0.03567
 28 Cu   -0.00404   -0.00233    0.02335
 29 Cu    0.00296    0.00047    0.02335
 30 Cu    0.38945   -0.22836   -0.48024
 31 Cu    0.00189    0.00233    0.02335
 32 Cu   -0.39100   -0.22575   -0.48013
 33 Cu    0.00851    0.00492    0.03565
 34 Cu   -0.00563    0.00439    0.03567
 35 Cu   -0.00304    0.45145   -0.48024
 36 Cu    0.00006    0.00004   -0.02857
 37 Cu   -0.00602    0.03423   -0.04097
 38 Cu    0.00617    0.03116   -0.04074
 39 Cu    0.02663   -0.02233   -0.04097
 40 Cu   -0.00242   -0.00140   -0.02474
 41 Cu   -0.02388   -0.02375   -0.04075
 42 Cu    0.03007   -0.01024   -0.04074
 43 Cu   -0.03251   -0.00881   -0.04075
 44 Cu    0.00247    0.00142    1.46649

System changes: positions 

Initializing position-dependent things.

Density initialized from wave functions
                                          
                                          
                                          
                                          
                                          
                Cu    Cu     Cu           
            Cu   CCu   CCu    Cu          
       Cu    Cu     Cu                    
             Cu    Cu    Cu               
        Cu    Cu    CCu   Cu    Cu        
                                          
               Cu     Cu    Cu            
           Cu   CCu   CCu    Cu           
            Cu    Cu    Cu                
                 Cu    Cu     Cu          
       Cu    Cu    CCu   Cu               
        Cu    Cu     Cu                   
                                          
                                          
                                          
                                          
                                          

Positions:
   0 Cu     0.000000    1.485613   15.000022    ( 0.0000,  0.0000,  0.0000)
   1 Cu     2.573160    1.485614   15.000022    ( 0.0000,  0.0000,  0.0000)
   2 Cu     5.146325    1.485616   15.000022    ( 0.0000,  0.0000,  0.0000)
   3 Cu     1.286580    3.714038   15.000023    ( 0.0000,  0.0000,  0.0000)
   4 Cu     3.859743    3.714040   15.000022    ( 0.0000,  0.0000,  0.0000)
   5 Cu     6.432904    3.714039   15.000023    ( 0.0000,  0.0000,  0.0000)
   6 Cu     2.573165    5.942464   15.000022    ( 0.0000,  0.0000,  0.0000)
   7 Cu     5.146321    5.942464   15.000022    ( 0.0000,  0.0000,  0.0000)
   8 Cu     7.719483    5.942462   15.000023    ( 0.0000,  0.0000,  0.0000)
   9 Cu     0.000000    0.000000   17.100964    ( 0.0000,  0.0000,  0.0000)
  10 Cu     2.573167    0.000001   17.100964    ( 0.0000,  0.0000,  0.0000)
  11 Cu     5.146317   -0.000001   17.100964    ( 0.0000,  0.0000,  0.0000)
  12 Cu     1.286584    2.228428   17.100964    ( 0.0000,  0.0000,  0.0000)
  13 Cu     3.859741    2.228423   17.100963    ( 0.0000,  0.0000,  0.0000)
  14 Cu     6.432902    2.228427   17.100964    ( 0.0000,  0.0000,  0.0000)
  15 Cu     2.573158    4.456842   17.100964    ( 0.0000,  0.0000,  0.0000)
  16 Cu     5.146326    4.456843   17.100964    ( 0.0000,  0.0000,  0.0000)
  17 Cu     7.719486    4.456847   17.100966    ( 0.0000,  0.0000,  0.0000)
  18 Cu     1.286577    0.742806   19.201957    ( 0.0000,  0.0000,  0.0000)
  19 Cu     3.859744    0.742809   19.201954    ( 0.0000,  0.0000,  0.0000)
  20 Cu     6.432906    0.742806   19.201957    ( 0.0000,  0.0000,  0.0000)
  21 Cu     2.573163    2.971232   19.201954    ( 0.0000,  0.0000,  0.0000)
  22 Cu     5.146322    2.971231   19.201954    ( 0.0000,  0.0000,  0.0000)
  23 Cu     7.719484    2.971230   19.201953    ( 0.0000,  0.0000,  0.0000)
  24 Cu     3.859742    5.199657   19.201957    ( 0.0000,  0.0000,  0.0000)
  25 Cu     6.432902    5.199654   19.201953    ( 0.0000,  0.0000,  0.0000)
  26 Cu     9.006068    5.199656   19.201953    ( 0.0000,  0.0000,  0.0000)
  27 Cu     0.000000    1.485613   21.302948    ( 0.0000,  0.0000,  0.0000)
  28 Cu     2.573159    1.485614   21.302947    ( 0.0000,  0.0000,  0.0000)
  29 Cu     5.146326    1.485615   21.302947    ( 0.0000,  0.0000,  0.0000)
  30 Cu     1.286622    3.714014   21.302889    ( 0.0000,  0.0000,  0.0000)
  31 Cu     3.859743    3.714041   21.302947    ( 0.0000,  0.0000,  0.0000)
  32 Cu     6.432862    3.714015   21.302889    ( 0.0000,  0.0000,  0.0000)
  33 Cu     2.573165    5.942464   21.302948    ( 0.0000,  0.0000,  0.0000)
  34 Cu     5.146321    5.942464   21.302948    ( 0.0000,  0.0000,  0.0000)
  35 Cu     7.719483    5.942510   21.302889    ( 0.0000,  0.0000,  0.0000)
  36 Cu     0.000000    0.000000   23.403892    ( 0.0000,  0.0000,  0.0000)
  37 Cu     2.573164    0.000006   23.403893    ( 0.0000,  0.0000,  0.0000)
  38 Cu     5.146321    0.000005   23.403893    ( 0.0000,  0.0000,  0.0000)
  39 Cu     1.286587    2.228423   23.403893    ( 0.0000,  0.0000,  0.0000)
  40 Cu     3.859741    2.228423   23.403893    ( 0.0000,  0.0000,  0.0000)
  41 Cu     6.432899    2.228422   23.403893    ( 0.0000,  0.0000,  0.0000)
  42 Cu     2.573164    4.456842   23.403893    ( 0.0000,  0.0000,  0.0000)
  43 Cu     5.146319    4.456843   23.403893    ( 0.0000,  0.0000,  0.0000)
  44 Cu     7.719486    4.456847   23.055533    ( 0.0000,  0.0000,  0.0000)

Unit cell:
           periodic     x           y           z      points  spacing
  1. axis:    yes    7.719485    0.000000    0.000000    32     0.2089
  2. axis:    yes    3.859742    6.685270    0.000000    32     0.2089
  3. axis:    no     0.000000    0.000000   38.403911   192     0.2000

  Lengths:   7.719485   7.719485  38.403911
  Angles:   90.000000  90.000000  60.000000

Effective grid spacing dv^(1/3) = 0.2160

                     log10-error:    total        iterations:
           time      wfs    density  energy       fermi  poisson
iter:   1  12:28:33                -145.734493    3      1      
iter:   2  12:28:38         -3.05  -145.748120    3      1      
iter:   3  12:28:43         -2.97  -145.711115    2      1      
iter:   4  12:28:48         -3.59  -145.708026    2      1      
iter:   5  12:28:52         -3.89  -145.707523    3      1      
iter:   6  12:28:57         -4.11  -145.707274    3      1      

Converged after 6 iterations.

Dipole moment: (7.770021, 4.486023, 0.006160) |e|*Ang

Energy contributions relative to reference atoms: (reference = -2025965.332850)

Kinetic:       -873.540183
Potential:     +745.371974
External:        +0.000000
XC:             -20.061914
Entropy (-ST):   -0.519803
Local:           +2.782750
--------------------------
Free energy:   -145.967175
Extrapolated:  -145.707274

Dipole-layer corrected work functions: 4.461238, 4.439638 eV

Fermi level: -4.45044

Showing only first 2 kpts
 Kpt  Band  Eigenvalues  Occupancy
  0   245     -5.70861    0.22222
  0   246     -5.69710    0.22222
  0   247     -5.35094    0.22219
  0   248     -4.17623    0.01345

  1   245     -4.68733    0.40641
  1   246     -4.57838    0.34771
  1   247     -4.56369    0.33613
  1   248     -4.43917    0.20972


No gap

Forces in eV/Ang:
  0 Cu    0.00091   -0.00473    0.03592
  1 Cu   -0.00327   -0.00189    0.03134
  2 Cu    0.00206    0.00093    0.03133
  3 Cu   -0.00224   -0.00211    0.04303
  4 Cu    0.00184    0.00132    0.03133
  5 Cu    0.00027    0.00016    0.04301
  6 Cu    0.00634    0.00366    0.03593
  7 Cu   -0.00364    0.00316    0.03592
  8 Cu   -0.00295   -0.00088    0.04303
  9 Cu    0.00000    0.00000   -0.03260
 10 Cu    0.01210    0.00142   -0.03173
 11 Cu   -0.01210   -0.00159   -0.03173
 12 Cu    0.00728    0.00977   -0.03173
 13 Cu   -0.00247   -0.00142   -0.04405
 14 Cu   -0.00471    0.00833   -0.03173
 15 Cu   -0.00743   -0.00968   -0.03173
 16 Cu    0.00486   -0.00824   -0.03173
 17 Cu    0.00246    0.00142   -0.03890
 18 Cu   -0.00420   -0.00242    0.00906
 19 Cu    0.00283    0.00375   -0.00980
 20 Cu    0.00141   -0.00193    0.00906
 21 Cu    0.00466    0.00058   -0.00980
 22 Cu   -0.00286   -0.00165   -0.00978
 23 Cu   -0.00188   -0.00360   -0.02851
 24 Cu   -0.00097    0.00219    0.00906
 25 Cu   -0.00405    0.00017   -0.02851
 26 Cu    0.00511    0.00295   -0.02854
 27 Cu    0.00098   -0.00550    0.03952
 28 Cu   -0.00138   -0.00080    0.01967
 29 Cu    0.00031    0.00200    0.01967
 30 Cu    0.62096   -0.36212   -0.75626
 31 Cu    0.00189   -0.00073    0.01967
 32 Cu   -0.62237   -0.35933   -0.75605
 33 Cu    0.00717    0.00414    0.03949
 34 Cu   -0.00427    0.00360    0.03952
 35 Cu   -0.00312    0.71883   -0.75626
 36 Cu    0.00006    0.00004   -0.01889
 37 Cu   -0.00399    0.03266   -0.04239
 38 Cu    0.00414    0.02955   -0.04207
 39 Cu    0.02629   -0.01979   -0.04239
 40 Cu   -0.00242   -0.00139   -0.01484
 41 Cu   -0.02353   -0.02114   -0.04208
 42 Cu    0.02766   -0.01119   -0.04207
 43 Cu   -0.03008   -0.00980   -0.04208
 44 Cu    0.00240    0.00139    2.38848

System changes: positions 

Initializing position-dependent things.

Density initialized from wave functions
                                          
                                          
                                          
                                          
                                          
                Cu    Cu     Cu           
            Cu   CCu   CCu    Cu          
       Cu    Cu     Cu                    
             Cu    Cu    Cu               
        Cu    Cu    CCu   Cu    Cu        
                                          
               Cu     Cu    Cu            
           Cu   CCu   CCu    Cu           
            Cu    Cu    Cu                
                 Cu    Cu     Cu          
       Cu    Cu    CCu   Cu               
        Cu    Cu     Cu                   
                                          
                                          
                                          
                                          
                                          

Positions:
   0 Cu     0.000001    1.485611   15.000031    ( 0.0000,  0.0000,  0.0000)
   1 Cu     2.573159    1.485614   15.000031    ( 0.0000,  0.0000,  0.0000)
   2 Cu     5.146325    1.485616   15.000031    ( 0.0000,  0.0000,  0.0000)
   3 Cu     1.286579    3.714037   15.000033    ( 0.0000,  0.0000,  0.0000)
   4 Cu     3.859744    3.714041   15.000031    ( 0.0000,  0.0000,  0.0000)
   5 Cu     6.432904    3.714039   15.000033    ( 0.0000,  0.0000,  0.0000)
   6 Cu     2.573167    5.942465   15.000031    ( 0.0000,  0.0000,  0.0000)
   7 Cu     5.146320    5.942465   15.000031    ( 0.0000,  0.0000,  0.0000)
   8 Cu     7.719483    5.942462   15.000033    ( 0.0000,  0.0000,  0.0000)
   9 Cu     0.000000    0.000000   17.100958    ( 0.0000,  0.0000,  0.0000)
  10 Cu     2.573170    0.000001   17.100958    ( 0.0000,  0.0000,  0.0000)
  11 Cu     5.146315   -0.000001   17.100958    ( 0.0000,  0.0000,  0.0000)
  12 Cu     1.286586    2.228430   17.100958    ( 0.0000,  0.0000,  0.0000)
  13 Cu     3.859741    2.228422   17.100956    ( 0.0000,  0.0000,  0.0000)
  14 Cu     6.432901    2.228429   17.100958    ( 0.0000,  0.0000,  0.0000)
  15 Cu     2.573156    4.456840   17.100958    ( 0.0000,  0.0000,  0.0000)
  16 Cu     5.146327    4.456841   17.100958    ( 0.0000,  0.0000,  0.0000)
  17 Cu     7.719486    4.456848   17.100960    ( 0.0000,  0.0000,  0.0000)
  18 Cu     1.286576    0.742805   19.201959    ( 0.0000,  0.0000,  0.0000)
  19 Cu     3.859744    0.742810   19.201953    ( 0.0000,  0.0000,  0.0000)
  20 Cu     6.432907    0.742805   19.201959    ( 0.0000,  0.0000,  0.0000)
  21 Cu     2.573164    2.971232   19.201953    ( 0.0000,  0.0000,  0.0000)
  22 Cu     5.146322    2.971230   19.201953    ( 0.0000,  0.0000,  0.0000)
  23 Cu     7.719483    2.971229   19.201951    ( 0.0000,  0.0000,  0.0000)
  24 Cu     3.859742    5.199658   19.201959    ( 0.0000,  0.0000,  0.0000)
  25 Cu     6.432902    5.199654   19.201951    ( 0.0000,  0.0000,  0.0000)
  26 Cu     9.006069    5.199656   19.201951    ( 0.0000,  0.0000,  0.0000)
  27 Cu     0.000001    1.485612   21.302955    ( 0.0000,  0.0000,  0.0000)
  28 Cu     2.573158    1.485613   21.302952    ( 0.0000,  0.0000,  0.0000)
  29 Cu     5.146326    1.485615   21.302952    ( 0.0000,  0.0000,  0.0000)
  30 Cu     1.286672    3.713984   21.302829    ( 0.0000,  0.0000,  0.0000)
  31 Cu     3.859744    3.714042   21.302952    ( 0.0000,  0.0000,  0.0000)
  32 Cu     6.432812    3.713986   21.302829    ( 0.0000,  0.0000,  0.0000)
  33 Cu     2.573166    5.942465   21.302955    ( 0.0000,  0.0000,  0.0000)
  34 Cu     5.146320    5.942464   21.302955    ( 0.0000,  0.0000,  0.0000)
  35 Cu     7.719483    5.942568   21.302829    ( 0.0000,  0.0000,  0.0000)
  36 Cu     0.000000    0.000000   23.403886    ( 0.0000,  0.0000,  0.0000)
  37 Cu     2.573164    0.000010   23.403885    ( 0.0000,  0.0000,  0.0000)
  38 Cu     5.146320    0.000008   23.403885    ( 0.0000,  0.0000,  0.0000)
  39 Cu     1.286591    2.228420   23.403885    ( 0.0000,  0.0000,  0.0000)
  40 Cu     3.859741    2.228422   23.403888    ( 0.0000,  0.0000,  0.0000)
  41 Cu     6.432895    2.228419   23.403885    ( 0.0000,  0.0000,  0.0000)
  42 Cu     2.573167    4.456840   23.403885    ( 0.0000,  0.0000,  0.0000)
  43 Cu     5.146316    4.456841   23.403885    ( 0.0000,  0.0000,  0.0000)
  44 Cu     7.719486    4.456848   22.968589    ( 0.0000,  0.0000,  0.0000)

Unit cell:
           periodic     x           y           z      points  spacing
  1. axis:    yes    7.719485    0.000000    0.000000    32     0.2089
  2. axis:    yes    3.859742    6.685270    0.000000    32     0.2089
  3. axis:    no     0.000000    0.000000   38.403911   192     0.2000

  Lengths:   7.719485   7.719485  38.403911
  Angles:   90.000000  90.000000  60.000000

Effective grid spacing dv^(1/3) = 0.2160

                     log10-error:    total        iterations:
           time      wfs    density  energy       fermi  poisson
iter:   1  12:29:27                -145.453007    3      1      
iter:   2  12:29:32         -3.48  -145.450743    3      1      
iter:   3  12:29:37         -3.70  -145.451034    3      1      
iter:   4  12:29:42         -3.54  -145.449570    3      1      
iter:   5  12:29:46         -3.92  -145.449195    3      1      
iter:   6  12:29:51         -4.01  -145.448887    2      1      

Converged after 6 iterations.

Dipole moment: (7.787251, 4.495972, 0.007214) |e|*Ang

Energy contributions relative to reference atoms: (reference = -2025965.332850)

Kinetic:       -868.115305
Potential:     +740.836290
External:        +0.000000
XC:             -20.691397
Entropy (-ST):   -0.518673
Local:           +2.780861
--------------------------
Free energy:   -145.708224
Extrapolated:  -145.448887

Dipole-layer corrected work functions: 4.456986, 4.431690 eV

Fermi level: -4.44434

Showing only first 2 kpts
 Kpt  Band  Eigenvalues  Occupancy
  0   245     -5.69716    0.22222
  0   246     -5.68733    0.22222
  0   247     -5.33490    0.22219
  0   248     -4.17320    0.01385

  1   245     -4.67842    0.40542
  1   246     -4.57427    0.34921
  1   247     -4.55690    0.33557
  1   248     -4.43239    0.20896


No gap

Forces in eV/Ang:
  0 Cu    0.00091   -0.00376    0.04201
  1 Cu   -0.00266   -0.00154    0.03563
  2 Cu    0.00145    0.00128    0.03562
  3 Cu   -0.00259   -0.00190    0.05001
  4 Cu    0.00184    0.00062    0.03562
  5 Cu    0.00063    0.00037    0.05000
  6 Cu    0.00550    0.00318    0.04202
  7 Cu   -0.00280    0.00267    0.04201
  8 Cu   -0.00294   -0.00130    0.05001
  9 Cu    0.00000    0.00000   -0.02782
 10 Cu    0.01162    0.00189   -0.02862
 11 Cu   -0.01162   -0.00112   -0.02862
 12 Cu    0.00745    0.00912   -0.02862
 13 Cu   -0.00246   -0.00142   -0.04123
 14 Cu   -0.00488    0.00769   -0.02861
 15 Cu   -0.00678   -0.00950   -0.02862
 16 Cu    0.00422   -0.00807   -0.02861
 17 Cu    0.00246    0.00142   -0.03962
 18 Cu   -0.00288   -0.00166    0.01089
 19 Cu    0.00282    0.00323   -0.01053
 20 Cu    0.00010   -0.00118    0.01089
 21 Cu    0.00421    0.00083   -0.01053
 22 Cu   -0.00240   -0.00139   -0.01050
 23 Cu   -0.00187   -0.00373   -0.03350
 24 Cu   -0.00097    0.00067    0.01089
 25 Cu   -0.00417    0.00024   -0.03350
 26 Cu    0.00523    0.00302   -0.03352
 27 Cu    0.00098   -0.00742    0.03929
 28 Cu    0.00186    0.00108    0.01262
 29 Cu   -0.00293    0.00387    0.01263
 30 Cu    0.94138   -0.54722   -1.12218
 31 Cu    0.00188   -0.00447    0.01263
 32 Cu   -0.94262   -0.54422   -1.12184
 33 Cu    0.00886    0.00511    0.03925
 34 Cu   -0.00594    0.00455    0.03929
 35 Cu   -0.00321    1.08887   -1.12218
 36 Cu    0.00006    0.00004   -0.01433
 37 Cu   -0.00281    0.03165   -0.04813
 38 Cu    0.00295    0.02848   -0.04773
 39 Cu    0.02601   -0.01826   -0.04813
 40 Cu   -0.00241   -0.00139   -0.00979
 41 Cu   -0.02322   -0.01953   -0.04774
 42 Cu    0.02614   -0.01168   -0.04773
 43 Cu   -0.02853   -0.01034   -0.04774
 44 Cu    0.00228    0.00132    3.57792

System changes: positions 

Initializing position-dependent things.

Density initialized from wave functions
                                          
                                          
                                          
                                          
                                          
                Cu    Cu     Cu           
            Cu   CCu   CCu    Cu          
       Cu    Cu     Cu                    
             Cu    Cu    Cu               
        Cu    Cu    CCu   Cu    Cu        
                                          
               Cu     Cu    Cu            
           Cu   CCu   CCu    Cu           
            Cu    Cu    Cu                
                 Cu    Cu     Cu          
       Cu    Cu    CCu   Cu               
        Cu    Cu     Cu                   
                                          
                                          
                                          
                                          
                                          

Positions:
   0 Cu     0.000001    1.485610   15.000042    ( 0.0000,  0.0000,  0.0000)
   1 Cu     2.573158    1.485613   15.000042    ( 0.0000,  0.0000,  0.0000)
   2 Cu     5.146326    1.485616   15.000042    ( 0.0000,  0.0000,  0.0000)
   3 Cu     1.286579    3.714037   15.000046    ( 0.0000,  0.0000,  0.0000)
   4 Cu     3.859744    3.714041   15.000042    ( 0.0000,  0.0000,  0.0000)
   5 Cu     6.432904    3.714039   15.000046    ( 0.0000,  0.0000,  0.0000)
   6 Cu     2.573168    5.942466   15.000042    ( 0.0000,  0.0000,  0.0000)
   7 Cu     5.146319    5.942466   15.000042    ( 0.0000,  0.0000,  0.0000)
   8 Cu     7.719482    5.942461   15.000046    ( 0.0000,  0.0000,  0.0000)
   9 Cu     0.000000    0.000000   17.100950    ( 0.0000,  0.0000,  0.0000)
  10 Cu     2.573173    0.000001   17.100951    ( 0.0000,  0.0000,  0.0000)
  11 Cu     5.146312   -0.000002   17.100951    ( 0.0000,  0.0000,  0.0000)
  12 Cu     1.286588    2.228433   17.100951    ( 0.0000,  0.0000,  0.0000)
  13 Cu     3.859740    2.228422   17.100947    ( 0.0000,  0.0000,  0.0000)
  14 Cu     6.432900    2.228431   17.100951    ( 0.0000,  0.0000,  0.0000)
  15 Cu     2.573154    4.456837   17.100951    ( 0.0000,  0.0000,  0.0000)
  16 Cu     5.146328    4.456839   17.100951    ( 0.0000,  0.0000,  0.0000)
  17 Cu     7.719487    4.456848   17.100952    ( 0.0000,  0.0000,  0.0000)
  18 Cu     1.286575    0.742804   19.201960    ( 0.0000,  0.0000,  0.0000)
  19 Cu     3.859745    0.742810   19.201951    ( 0.0000,  0.0000,  0.0000)
  20 Cu     6.432907    0.742805   19.201960    ( 0.0000,  0.0000,  0.0000)
  21 Cu     2.573165    2.971232   19.201951    ( 0.0000,  0.0000,  0.0000)
  22 Cu     5.146321    2.971230   19.201951    ( 0.0000,  0.0000,  0.0000)
  23 Cu     7.719483    2.971228   19.201947    ( 0.0000,  0.0000,  0.0000)
  24 Cu     3.859741    5.199659   19.201960    ( 0.0000,  0.0000,  0.0000)
  25 Cu     6.432901    5.199654   19.201947    ( 0.0000,  0.0000,  0.0000)
  26 Cu     9.006070    5.199657   19.201947    ( 0.0000,  0.0000,  0.0000)
  27 Cu     0.000001    1.485611   21.302964    ( 0.0000,  0.0000,  0.0000)
  28 Cu     2.573157    1.485613   21.302959    ( 0.0000,  0.0000,  0.0000)
  29 Cu     5.146327    1.485615   21.302959    ( 0.0000,  0.0000,  0.0000)
  30 Cu     1.286757    3.713934   21.302727    ( 0.0000,  0.0000,  0.0000)
  31 Cu     3.859744    3.714042   21.302959    ( 0.0000,  0.0000,  0.0000)
  32 Cu     6.432726    3.713936   21.302727    ( 0.0000,  0.0000,  0.0000)
  33 Cu     2.573168    5.942466   21.302964    ( 0.0000,  0.0000,  0.0000)
  34 Cu     5.146319    5.942465   21.302964    ( 0.0000,  0.0000,  0.0000)
  35 Cu     7.719482    5.942667   21.302727    ( 0.0000,  0.0000,  0.0000)
  36 Cu     0.000000    0.000000   23.403879    ( 0.0000,  0.0000,  0.0000)
  37 Cu     2.573164    0.000016   23.403875    ( 0.0000,  0.0000,  0.0000)
  38 Cu     5.146320    0.000013   23.403875    ( 0.0000,  0.0000,  0.0000)
  39 Cu     1.286596    2.228418   23.403875    ( 0.0000,  0.0000,  0.0000)
  40 Cu     3.859740    2.228422   23.403881    ( 0.0000,  0.0000,  0.0000)
  41 Cu     6.432891    2.228416   23.403875    ( 0.0000,  0.0000,  0.0000)
  42 Cu     2.573172    4.456838   23.403875    ( 0.0000,  0.0000,  0.0000)
  43 Cu     5.146311    4.456839   23.403875    ( 0.0000,  0.0000,  0.0000)
  44 Cu     7.719487    4.456848   22.881780    ( 0.0000,  0.0000,  0.0000)

Unit cell:
           periodic     x           y           z      points  spacing
  1. axis:    yes    7.719485    0.000000    0.000000    32     0.2089
  2. axis:    yes    3.859742    6.685270    0.000000    32     0.2089
  3. axis:    no     0.000000    0.000000   38.403911   192     0.2000

  Lengths:   7.719485   7.719485  38.403911
  Angles:   90.000000  90.000000  60.000000

Effective grid spacing dv^(1/3) = 0.2160

                     log10-error:    total        iterations:
           time      wfs    density  energy       fermi  poisson
iter:   1  12:30:21                -145.110403    3      1      
iter:   2  12:30:26         -2.98  -145.144864    3      1      
iter:   3  12:30:31         -2.85  -145.082451    3      1      
iter:   4  12:30:36         -3.66  -145.081294    3      1      
iter:   5  12:30:40         -3.95  -145.081060    2      1      
iter:   6  12:30:45         -3.94  -145.080836    3      1      
iter:   7  12:30:50         -4.07  -145.080831    2      1      

Converged after 7 iterations.

Dipole moment: (7.804994, 4.506215, 0.012652) |e|*Ang

Energy contributions relative to reference atoms: (reference = -2025965.332850)

Kinetic:       -861.252067
Potential:     +735.098170
External:        +0.000000
XC:             -21.457484
Entropy (-ST):   -0.517104
Local:           +2.789101
--------------------------
Free energy:   -145.339383
Extrapolated:  -145.080831

Dipole-layer corrected work functions: 4.460634, 4.416272 eV

Fermi level: -4.43845

Showing only first 2 kpts
 Kpt  Band  Eigenvalues  Occupancy
  0   245     -5.68514    0.22222
  0   246     -5.68054    0.22222
  0   247     -5.31672    0.22219
  0   248     -4.17019    0.01422

  1   245     -4.67045    0.40468
  1   246     -4.57122    0.35132
  1   247     -4.55183    0.33623
  1   248     -4.42519    0.20751


No gap

Forces in eV/Ang:
  0 Cu    0.00091   -0.00376    0.03111
  1 Cu   -0.00166   -0.00096    0.02294
  2 Cu    0.00045    0.00185    0.02293
  3 Cu   -0.00202   -0.00222    0.04027
  4 Cu    0.00183   -0.00053    0.02293
  5 Cu    0.00007    0.00004    0.04026
  6 Cu    0.00550    0.00317    0.03112
  7 Cu   -0.00280    0.00267    0.03111
  8 Cu   -0.00293   -0.00064    0.04027
  9 Cu    0.00000    0.00000   -0.03226
 10 Cu    0.01217    0.00139   -0.03245
 11 Cu   -0.01217   -0.00161   -0.03246
 12 Cu    0.00729    0.00985   -0.03245
 13 Cu   -0.00246   -0.00142   -0.04728
 14 Cu   -0.00473    0.00842   -0.03245
 15 Cu   -0.00748   -0.00973   -0.03246
 16 Cu    0.00493   -0.00830   -0.03245
 17 Cu    0.00245    0.00141   -0.04448
 18 Cu   -0.00184   -0.00106    0.01393
 19 Cu    0.00281    0.00229   -0.01218
 20 Cu   -0.00093   -0.00058    0.01392
 21 Cu    0.00339    0.00129   -0.01218
 22 Cu   -0.00159   -0.00092   -0.01216
 23 Cu   -0.00187   -0.00212   -0.04057
 24 Cu   -0.00097   -0.00052    0.01392
 25 Cu   -0.00277   -0.00056   -0.04057
 26 Cu    0.00382    0.00221   -0.04058
 27 Cu    0.00098   -0.00881    0.04030
 28 Cu    0.00238    0.00137    0.00839
 29 Cu   -0.00345    0.00416    0.00841
 30 Cu    1.36826   -0.79378   -1.57543
 31 Cu    0.00188   -0.00506    0.00841
 32 Cu   -1.36928   -0.79055   -1.57491
 33 Cu    0.01008    0.00582    0.04026
 34 Cu   -0.00714    0.00525    0.04030
 35 Cu   -0.00331    1.58184   -1.57543
 36 Cu    0.00007    0.00004   -0.02600
 37 Cu   -0.00569    0.03552   -0.06516
 38 Cu    0.00582    0.03227   -0.06470
 39 Cu    0.02791   -0.02269   -0.06516
 40 Cu   -0.00241   -0.00139   -0.01874
 41 Cu   -0.02509   -0.02387   -0.06470
 42 Cu    0.03086   -0.01110   -0.06470
 43 Cu   -0.03322   -0.00980   -0.06470
 44 Cu    0.00213    0.00123    4.97157

System changes: positions 

Initializing position-dependent things.

Density initialized from wave functions
                                          
                                          
                                          
                                          
                                          
                Cu    Cu     Cu           
            Cu   CCu   CCu    Cu          
       Cu    Cu     Cu                    
             Cu    Cu    Cu               
        Cu    Cu    CCu   Cu    Cu        
                                          
               Cu     Cu    Cu            
           Cu   CCu   CCu    Cu           
            Cu    Cu    Cu                
                 Cu    Cu     Cu          
       Cu    Cu    CCu   Cu               
        Cu    Cu     Cu                   
                                          
                                          
                                          
                                          
                                          

Positions:
   0 Cu     0.000001    1.485609   15.000054    ( 0.0000,  0.0000,  0.0000)
   1 Cu     2.573157    1.485613   15.000053    ( 0.0000,  0.0000,  0.0000)
   2 Cu     5.146327    1.485616   15.000053    ( 0.0000,  0.0000,  0.0000)
   3 Cu     1.286578    3.714036   15.000059    ( 0.0000,  0.0000,  0.0000)
   4 Cu     3.859745    3.714041   15.000053    ( 0.0000,  0.0000,  0.0000)
   5 Cu     6.432904    3.714039   15.000059    ( 0.0000,  0.0000,  0.0000)
   6 Cu     2.573170    5.942467   15.000054    ( 0.0000,  0.0000,  0.0000)
   7 Cu     5.146318    5.942467   15.000054    ( 0.0000,  0.0000,  0.0000)
   8 Cu     7.719481    5.942461   15.000059    ( 0.0000,  0.0000,  0.0000)
   9 Cu     0.000000    0.000000   17.100942    ( 0.0000,  0.0000,  0.0000)
  10 Cu     2.573177    0.000001   17.100943    ( 0.0000,  0.0000,  0.0000)
  11 Cu     5.146308   -0.000002   17.100943    ( 0.0000,  0.0000,  0.0000)
  12 Cu     1.286590    2.228436   17.100943    ( 0.0000,  0.0000,  0.0000)
  13 Cu     3.859739    2.228422   17.100937    ( 0.0000,  0.0000,  0.0000)
  14 Cu     6.432898    2.228434   17.100943    ( 0.0000,  0.0000,  0.0000)
  15 Cu     2.573152    4.456835   17.100943    ( 0.0000,  0.0000,  0.0000)
  16 Cu     5.146329    4.456836   17.100943    ( 0.0000,  0.0000,  0.0000)
  17 Cu     7.719488    4.456848   17.100943    ( 0.0000,  0.0000,  0.0000)
  18 Cu     1.286573    0.742803   19.201962    ( 0.0000,  0.0000,  0.0000)
  19 Cu     3.859746    0.742811   19.201949    ( 0.0000,  0.0000,  0.0000)
  20 Cu     6.432908    0.742804   19.201962    ( 0.0000,  0.0000,  0.0000)
  21 Cu     2.573166    2.971232   19.201949    ( 0.0000,  0.0000,  0.0000)
  22 Cu     5.146321    2.971230   19.201949    ( 0.0000,  0.0000,  0.0000)
  23 Cu     7.719482    2.971227   19.201941    ( 0.0000,  0.0000,  0.0000)
  24 Cu     3.859741    5.199660   19.201962    ( 0.0000,  0.0000,  0.0000)
  25 Cu     6.432900    5.199654   19.201941    ( 0.0000,  0.0000,  0.0000)
  26 Cu     9.006071    5.199658   19.201941    ( 0.0000,  0.0000,  0.0000)
  27 Cu     0.000001    1.485609   21.302974    ( 0.0000,  0.0000,  0.0000)
  28 Cu     2.573156    1.485612   21.302965    ( 0.0000,  0.0000,  0.0000)
  29 Cu     5.146328    1.485616   21.302965    ( 0.0000,  0.0000,  0.0000)
  30 Cu     1.286895    3.713853   21.302565    ( 0.0000,  0.0000,  0.0000)
  31 Cu     3.859745    3.714043   21.302965    ( 0.0000,  0.0000,  0.0000)
  32 Cu     6.432588    3.713856   21.302565    ( 0.0000,  0.0000,  0.0000)
  33 Cu     2.573170    5.942467   21.302974    ( 0.0000,  0.0000,  0.0000)
  34 Cu     5.146318    5.942467   21.302974    ( 0.0000,  0.0000,  0.0000)
  35 Cu     7.719481    5.942827   21.302565    ( 0.0000,  0.0000,  0.0000)
  36 Cu     0.000000    0.000000   23.403870    ( 0.0000,  0.0000,  0.0000)
  37 Cu     2.573164    0.000023   23.403863    ( 0.0000,  0.0000,  0.0000)
  38 Cu     5.146321    0.000019   23.403863    ( 0.0000,  0.0000,  0.0000)
  39 Cu     1.286602    2.228414   23.403863    ( 0.0000,  0.0000,  0.0000)
  40 Cu     3.859739    2.228422   23.403874    ( 0.0000,  0.0000,  0.0000)
  41 Cu     6.432886    2.228412   23.403863    ( 0.0000,  0.0000,  0.0000)
  42 Cu     2.573177    4.456835   23.403863    ( 0.0000,  0.0000,  0.0000)
  43 Cu     5.146305    4.456836   23.403863    ( 0.0000,  0.0000,  0.0000)
  44 Cu     7.719488    4.456848   22.795160    ( 0.0000,  0.0000,  0.0000)

Unit cell:
           periodic     x           y           z      points  spacing
  1. axis:    yes    7.719485    0.000000    0.000000    32     0.2089
  2. axis:    yes    3.859742    6.685270    0.000000    32     0.2089
  3. axis:    no     0.000000    0.000000   38.403911   192     0.2000

  Lengths:   7.719485   7.719485  38.403911
  Angles:   90.000000  90.000000  60.000000

Effective grid spacing dv^(1/3) = 0.2160

                     log10-error:    total        iterations:
           time      wfs    density  energy       fermi  poisson
iter:   1  12:31:20                -144.592762    3      1      
iter:   2  12:31:25         -3.22  -144.599529    3      1      
iter:   3  12:31:30         -3.08  -144.582379    3      1      
iter:   4  12:31:35         -3.64  -144.580700    3      1      
iter:   5  12:31:40         -3.84  -144.580418    2      1      
iter:   6  12:31:44         -4.04  -144.579755    2      1      

Converged after 6 iterations.

Dipole moment: (7.827006, 4.518924, 0.012074) |e|*Ang

Energy contributions relative to reference atoms: (reference = -2025965.332850)

Kinetic:       -854.306610
Potential:     +729.380214
External:        +0.000000
XC:             -22.255493
Entropy (-ST):   -0.515400
Local:           +2.859834
--------------------------
Free energy:   -144.837455
Extrapolated:  -144.579755

Dipole-layer corrected work functions: 4.455678, 4.413342 eV

Fermi level: -4.43451

Showing only first 2 kpts
 Kpt  Band  Eigenvalues  Occupancy
  0   245     -5.67315    0.22222
  0   246     -5.67308    0.22222
  0   247     -5.29856    0.22218
  0   248     -4.16902    0.01460

  1   245     -4.66487    0.40408
  1   246     -4.56977    0.35313
  1   247     -4.54994    0.33791
  1   248     -4.41912    0.20516


No gap

Forces in eV/Ang:
  0 Cu    0.00091   -0.00272    0.04003
  1 Cu   -0.00198   -0.00114    0.03068
  2 Cu    0.00078    0.00166    0.03067
  3 Cu   -0.00271   -0.00182    0.04826
  4 Cu    0.00183   -0.00016    0.03067
  5 Cu    0.00076    0.00044    0.04826
  6 Cu    0.00459    0.00265    0.04005
  7 Cu   -0.00190    0.00215    0.04003
  8 Cu   -0.00293   -0.00144    0.04826
  9 Cu    0.00000    0.00000   -0.02897
 10 Cu    0.01235    0.00103   -0.02922
 11 Cu   -0.01235   -0.00197   -0.02923
 12 Cu    0.00706    0.01018   -0.02922
 13 Cu   -0.00245   -0.00142   -0.04692
 14 Cu   -0.00451    0.00876   -0.02922
 15 Cu   -0.00788   -0.00971   -0.02923
 16 Cu    0.00533   -0.00828   -0.02922
 17 Cu    0.00244    0.00141   -0.04535
 18 Cu   -0.00104   -0.00060    0.00980
 19 Cu    0.00280    0.00868   -0.02146
 20 Cu   -0.00173   -0.00012    0.00980
 21 Cu    0.00892   -0.00191   -0.02146
 22 Cu   -0.00712   -0.00411   -0.02144
 23 Cu   -0.00186   -0.00720   -0.05781
 24 Cu   -0.00097   -0.00144    0.00980
 25 Cu   -0.00717    0.00199   -0.05781
 26 Cu    0.00822    0.00475   -0.05783
 27 Cu    0.00098   -0.01331    0.04352
 28 Cu    0.00513    0.00296    0.00764
 29 Cu   -0.00620    0.00574    0.00767
 30 Cu    1.93644   -1.12194   -2.11609
 31 Cu    0.00187   -0.00823    0.00767
 32 Cu   -1.93718   -1.11843   -2.11534
 33 Cu    0.01400    0.00808    0.04347
 34 Cu   -0.01104    0.00750    0.04352
 35 Cu   -0.00341    2.23798   -2.11609
 36 Cu    0.00006    0.00004   -0.00222
 37 Cu   -0.00529    0.03494   -0.04682
 38 Cu    0.00539    0.03161   -0.04630
 39 Cu    0.02761   -0.02205   -0.04682
 40 Cu   -0.00240   -0.00138    0.00558
 41 Cu   -0.02475   -0.02311   -0.04630
 42 Cu    0.03007   -0.01114   -0.04630
 43 Cu   -0.03239   -0.00988   -0.04630
 44 Cu    0.00194    0.00112    6.66647

System changes: positions 

Initializing position-dependent things.

Density initialized from wave functions
                                          
                                          
                                          
                                          
                                          
                Cu    Cu     Cu           
            Cu   CCu   CCu    Cu          
       Cu    Cu     Cu                    
             Cu    Cu    Cu               
        Cu    Cu    CCu   Cu    Cu        
                                          
               Cu     Cu    Cu            
           Cu   CCu   CCu    Cu           
            Cu    Cu    Cu                
                 Cu    Cu     Cu          
       Cu    Cu    CCu   Cu               
        Cu    Cu     Cu                   
                                          
                                          
                                          
                                          
                                          

Positions:
   0 Cu     0.000001    1.485607   15.000067    ( 0.0000,  0.0000,  0.0000)
   1 Cu     2.573156    1.485612   15.000066    ( 0.0000,  0.0000,  0.0000)
   2 Cu     5.146327    1.485616   15.000066    ( 0.0000,  0.0000,  0.0000)
   3 Cu     1.286577    3.714035   15.000075    ( 0.0000,  0.0000,  0.0000)
   4 Cu     3.859745    3.714042   15.000066    ( 0.0000,  0.0000,  0.0000)
   5 Cu     6.432904    3.714039   15.000075    ( 0.0000,  0.0000,  0.0000)
   6 Cu     2.573172    5.942468   15.000067    ( 0.0000,  0.0000,  0.0000)
   7 Cu     5.146316    5.942468   15.000067    ( 0.0000,  0.0000,  0.0000)
   8 Cu     7.719480    5.942461   15.000075    ( 0.0000,  0.0000,  0.0000)
[...]
iter:  88  21:25:30         -2.13  -111.474533    35     1      
iter:  89  21:25:35         -3.28  -111.548807    3      1      
iter:  90  21:25:39         -3.19  -111.512486    3      1      
iter:  91  21:25:44         -3.25  -111.512607    2      1      
iter:  92  21:25:48         -3.25  -111.541021    3      1      
iter:  93  21:25:53         -3.19  -112.506048    35     1      
iter:  94  21:25:57         -2.07  -111.494851    33     1      
iter:  95  21:26:01         -3.24  -111.485068    3      1      
iter:  96  21:26:06         -3.23  -111.474678    3      1      
iter:  97  21:26:10         -3.21  -111.492667    3      1      
iter:  98  21:26:15         -3.22  -111.486708    3      1      
iter:  99  21:26:19         -3.19  -113.252928    35     1      
iter: 100  21:26:24         -2.00  -111.480680    34     1      
iter: 101  21:26:28         -3.20  -111.482916    2      1      
iter: 102  21:26:33         -3.22  -111.478471    2      1      
iter: 103  21:26:37         -3.22  -111.479103    2      1      
iter: 104  21:26:42         -3.22  -111.423564    3      1      
iter: 105  21:26:46         -3.18  -111.406460    4      1      
iter: 106  21:26:51         -2.51  -111.447548    4      1      
iter: 107  21:26:55         -3.21  -111.492554    3      1      
iter: 108  21:27:00         -3.29  -111.469899    3      1      
iter: 109  21:27:04         -3.30  -111.473188    2      1      
iter: 110  21:27:09         -3.30  -111.449879    3      1      
iter: 111  21:27:13         -3.29  -111.626935    34     1      
iter: 112  21:27:18         -2.30  -111.439002    34     1      
iter: 113  21:27:22         -3.34  -111.433090    2      1      
iter: 114  21:27:27         -3.35  -111.411893    3      1      
iter: 115  21:27:31         -3.37  -111.404883    3      1      
iter: 116  21:27:36         -3.36  -111.420299    3      1      
iter: 117  21:27:40         -3.36  -111.686240    36     1      
iter: 118  21:27:45         -2.31  -111.413744    35     1      
iter: 119  21:27:49         -3.34  -111.417096    2      1      
iter: 120  21:27:54         -3.33  -111.423044    3      1      
iter: 121  21:27:58         -3.33  -111.411749    3      1      
iter: 122  21:28:03         -3.34  -111.438472    3      1      
iter: 123  21:28:07         -3.30  -111.523096    34     1      
iter: 124  21:28:12         -2.41  -111.453838    33     1      
iter: 125  21:28:16         -3.32  -111.456134    2      1      
iter: 126  21:28:21         -3.31  -111.454763    2      1      
iter: 127  21:28:25         -3.32  -111.420463    3      1      
iter: 128  21:28:30         -3.36  -111.420892    2      1      
iter: 129  21:28:34         -3.36  -111.695713    36     1      
iter: 130  21:28:39         -2.30  -111.419266    36     1      
iter: 131  21:28:43         -3.34  -111.423345    2      1      
iter: 132  21:28:48         -3.33  -111.405078    3      1      
iter: 133  21:28:52         -3.37  -111.422425    3      1      
iter: 134  21:28:57         -3.35  -111.412591    3      1      
iter: 135  21:29:01         -3.37  -111.448872    4      1      
iter: 136  21:29:06         -2.46  -111.445333    4      1      
iter: 137  21:29:10         -3.33  -111.445842    2      1      
iter: 138  21:29:15         -3.32  -111.440653    2      1      
iter: 139  21:29:19         -3.33  -111.440816    2      1      
iter: 140  21:29:24         -3.33  -111.418589    3      1      
iter: 141  21:29:28         -3.37  -111.735619    36     1      
iter: 142  21:29:33         -2.27  -111.443747    35     1      
iter: 143  21:29:37         -3.33  -111.429306    3      1      
iter: 144  21:29:42         -3.35  -111.440540    3      1      
iter: 145  21:29:46         -3.33  -111.411055    3      1      
iter: 146  21:29:51         -3.37  -111.417090    3      1      
iter: 147  21:29:55         -3.36  -112.635039    36     1      
iter: 148  21:30:00         -2.07  -111.384439    35     1      
iter: 149  21:30:04         -3.44  -111.383553    2      1      
iter: 150  21:30:09         -3.43  -111.385095    2      1      
iter: 151  21:30:13         -3.43  -111.387580    2      1      
iter: 152  21:30:18         -3.43  -111.386996    2      1      
iter: 153  21:30:22         -3.41  -111.284668    4      1      
iter: 154  21:30:27         -2.99  -111.408403    4      1      
iter: 155  21:30:31         -3.38  -111.408769    2      1      
iter: 156  21:30:36         -3.39  -111.374765    3      1      
iter: 157  21:30:40         -3.50  -111.414903    3      1      
iter: 158  21:30:45         -3.38  -111.410451    2      1      
iter: 159  21:30:49         -3.38  -111.283944    4      1      
iter: 160  21:30:54         -3.10  -111.393945    4      1      
iter: 161  21:30:58         -3.42  -111.423282    3      1      
iter: 162  21:31:02         -3.36  -111.395427    3      1      
iter: 163  21:31:07         -3.41  -111.391908    2      1      
iter: 164  21:31:11         -3.42  -111.398386    2      1      
iter: 165  21:31:16         -3.41  -111.356916    4      1      
iter: 166  21:31:20         -2.58  -111.401993    4      1      
iter: 167  21:31:25         -3.40  -111.383886    3      1      
iter: 168  21:31:29         -3.46  -111.398656    3      1      
iter: 169  21:31:34         -3.42  -111.415296    3      1      
iter: 170  21:31:38         -3.38  -111.412570    2      1      
iter: 171  21:31:43         -3.38  -111.293361    4      1      
iter: 172  21:31:47         -2.82  -111.411935    4      1      
iter: 173  21:31:52         -3.38  -111.382364    3      1      
iter: 174  21:31:56         -3.46  -111.421397    3      1      
iter: 175  21:32:01         -3.36  -111.425569    2      1      
iter: 176  21:32:05         -3.35  -111.385222    3      1      
iter: 177  21:32:10         -3.46  -111.320803    4      1      
iter: 178  21:32:14         -2.68  -111.398211    4      1      
iter: 179  21:32:19         -3.42  -111.369722    3      1      
iter: 180  21:32:23         -3.53  -111.382748    3      1      
iter: 181  21:32:28         -3.47  -111.391285    3      1      
iter: 182  21:32:32         -3.44  -111.395867    2      1      
iter: 183  21:32:37         -3.43  -111.300495    4      1      
iter: 184  21:32:41         -2.77  -111.381239    4      1      
iter: 185  21:32:46         -3.48  -111.339497    3      1      
iter: 186  21:32:50         -3.86  -111.327334    3      1      
iter: 187  21:32:55         -4.32  -111.320266    3      1      

Converged after 187 iterations.

Dipole moment: (33.661974, 19.434752, -0.027601) |e|*Ang

Energy contributions relative to reference atoms: (reference = -2025965.332850)

Kinetic:       -453.179771
Potential:     +387.393002
External:        +0.000000
XC:             -47.896453
Entropy (-ST):   -0.708563
Local:           +2.717237
--------------------------
Free energy:   -111.674548
Extrapolated:  -111.320266

Dipole-layer corrected work functions: 4.319069, 4.415852 eV

Fermi level: -4.36746

Showing only first 2 kpts
 Kpt  Band  Eigenvalues  Occupancy
  0   245     -4.74668    0.21732
  0   246     -4.74612    0.21730
  0   247     -4.55351    0.19230
  0   248     -4.49474    0.17361

  1   245     -4.59669    0.40366
  1   246     -4.45285    0.31172
  1   247     -4.42988    0.28941
  1   248     -4.26953    0.12135


No gap

Forces in eV/Ang:
  0 Cu    0.02997    2.82441   -2.69420
  1 Cu    6.42464    3.70927   -0.81714
  2 Cu   -6.47253    3.74363   -0.81307
  3 Cu    0.19187   -0.11524    1.55333
  4 Cu    0.00582   -7.47719   -0.81307
  5 Cu   -0.19721   -0.11386    1.55305
  6 Cu   -2.44286   -1.41038   -2.69627
  7 Cu    2.46099   -1.38625   -2.69419
  8 Cu   -0.00387    0.22379    1.55333
  9 Cu    0.00032    0.00018   -0.71517
 10 Cu   -2.50872   -0.33773   -0.76890
 11 Cu    2.50568   -0.33144   -0.76500
 12 Cu   -1.54684   -2.00375   -0.76890
 13 Cu   -0.00499   -0.00288    0.14088
 14 Cu    1.55106   -1.99612   -0.75971
 15 Cu    0.96581    2.33570   -0.76500
 16 Cu   -0.95316    2.34132   -0.75971
 17 Cu    0.00392    0.00226    0.07022
 18 Cu   -0.17387   -0.10038   -1.52172
 19 Cu    0.00489    2.14999    2.94738
 20 Cu    0.17196   -0.09848   -1.52430
 21 Cu    1.86439   -1.07076    2.94738
 22 Cu   -1.86437   -1.07639    2.95502
 23 Cu   -0.00460   -1.34444    1.41183
 24 Cu    0.00069    0.19816   -1.52430
 25 Cu   -1.16663    0.66824    1.41183
 26 Cu    1.15536    0.66705    1.40393
 27 Cu    0.00028   -4.10677    1.20666
 28 Cu   -2.51750   -1.45348   -1.11236
 29 Cu    2.51776   -1.44832   -1.11150
 30 Cu    1.53574   -0.87084   -0.35961
 31 Cu    0.00460    2.90460   -1.11150
 32 Cu   -1.53059   -0.88369   -0.35782
 33 Cu    3.54684    2.04777    1.21003
 34 Cu   -3.55643    2.05362    1.20666
 35 Cu    0.01370    1.76540   -0.35961
 36 Cu   -0.00008   -0.00005   -0.58151
 37 Cu   -1.14479    0.40666    0.20297
 38 Cu    1.14497    0.40416    0.20261
 39 Cu   -0.22022   -1.19475    0.20297
 40 Cu    0.00106    0.00061    4.20094
 41 Cu    0.22259   -1.18817    0.20040
 42 Cu    0.92250    0.78949    0.20261
 43 Cu   -0.91769    0.78686    0.20040
 44 Cu   -0.00716   -0.00414   -1.67821

System changes: positions 

Initializing position-dependent things.

Density initialized from wave functions
                                            
                                            
                                            
                                            
                                            
                Cu      Cu                  
            Cu           Cu                 
                  CuCu                      
              CuCu Cu    Cu   Cu            
       Cu    CCu      Cu  Cu                
         Cu        Cu                       
               Cu    Cu   Cu      Cu        
                                            
               Cu      Cu   Cuu             
                CCu     Cu                  
            Cu   Cu     CCu                 
       Cu         CuCu                      
              Cu    Cu         Cu           
        Cu   Cu        Cu                   
               Cu       Cu                  
                                            
                                            
                                            
                                            
                             Cu             
                                            
                                            
                                            
                                            
                                            
                                            
                                            

Positions:
   0 Cu    -0.001339    1.642333   14.679924    ( 0.0000,  0.0000,  0.0000)
   1 Cu     1.877365    1.083898   15.034340    ( 0.0000,  0.0000,  0.0000)
   2 Cu     5.840463    1.083924   15.033595    ( 0.0000,  0.0000,  0.0000)
   3 Cu     2.040046    3.280707   13.181277    ( 0.0000,  0.0000,  0.0000)
   4 Cu     3.858937    4.516027   15.033595    ( 0.0000,  0.0000,  0.0000)
   5 Cu     5.684836    3.282141   13.188954    ( 0.0000,  0.0000,  0.0000)
   6 Cu     2.439679    5.865396   14.680083    ( 0.0000,  0.0000,  0.0000)
   7 Cu     5.281375    5.862944   14.679924    ( 0.0000,  0.0000,  0.0000)
   8 Cu     7.720941    6.811648   13.181278    ( 0.0000,  0.0000,  0.0000)
   9 Cu     0.000188    0.000109   17.101080    ( 0.0000,  0.0000,  0.0000)
  10 Cu     2.778005   -0.217580   16.600135    ( 0.0000,  0.0000,  0.0000)
  11 Cu     4.941037   -0.218156   16.599320    ( 0.0000,  0.0000,  0.0000)
  12 Cu     1.200572    2.514613   16.600135    ( 0.0000,  0.0000,  0.0000)
  13 Cu     3.859654    2.228373   16.338320    ( 0.0000,  0.0000,  0.0000)
  14 Cu     6.518234    2.515019   16.598279    ( 0.0000,  0.0000,  0.0000)
  15 Cu     2.281590    4.388141   16.599320    ( 0.0000,  0.0000,  0.0000)
  16 Cu     5.437187    4.387447   16.598279    ( 0.0000,  0.0000,  0.0000)
  17 Cu     7.720839    4.457629    8.093190    ( 0.0000,  0.0000,  0.0000)
  18 Cu     2.588486    1.494463   20.208383    ( 0.0000,  0.0000,  0.0000)
  19 Cu     3.859868    0.472201   18.352559    ( 0.0000,  0.0000,  0.0000)
  20 Cu     5.130625    1.495528   20.209928    ( 0.0000,  0.0000,  0.0000)
  21 Cu     2.338872    3.106643   18.352559    ( 0.0000,  0.0000,  0.0000)
  22 Cu     5.380822    3.106619   18.351495    ( 0.0000,  0.0000,  0.0000)
  23 Cu     7.719120    2.643907   18.739657    ( 0.0000,  0.0000,  0.0000)
  24 Cu     3.860478    3.695487   20.209928    ( 0.0000,  0.0000,  0.0000)
  25 Cu     6.149250    5.363001   18.739657    ( 0.0000,  0.0000,  0.0000)
  26 Cu     9.291393    5.364388   18.740297    ( 0.0000,  0.0000,  0.0000)
  27 Cu     0.000183    1.948507   21.009314    ( 0.0000,  0.0000,  0.0000)
  28 Cu     2.234642    1.290171   22.348793    ( 0.0000,  0.0000,  0.0000)
  29 Cu     5.485263    1.289849   22.350285    ( 0.0000,  0.0000,  0.0000)
  30 Cu     1.205746    3.761189   20.890110    ( 0.0000,  0.0000,  0.0000)
  31 Cu     3.859674    4.105452   22.350285    ( 0.0000,  0.0000,  0.0000)
  32 Cu     6.514298    3.761032   20.891287    ( 0.0000,  0.0000,  0.0000)
  33 Cu     2.174309    5.712185   21.008854    ( 0.0000,  0.0000,  0.0000)
  34 Cu     5.547290    5.711175   21.009314    ( 0.0000,  0.0000,  0.0000)
  35 Cu     7.719900    5.848882   20.890111    ( 0.0000,  0.0000,  0.0000)
  36 Cu     0.000065    0.000038   23.358995    ( 0.0000,  0.0000,  0.0000)
  37 Cu     2.780573   -0.320186   23.833622    ( 0.0000,  0.0000,  0.0000)
  38 Cu     4.938350   -0.322010   23.832438    ( 0.0000,  0.0000,  0.0000)
  39 Cu     1.112997    2.568139   23.833622    ( 0.0000,  0.0000,  0.0000)
  40 Cu     3.859486    2.228275   23.279212    ( 0.0000,  0.0000,  0.0000)
  41 Cu     6.607546    2.569190   23.833567    ( 0.0000,  0.0000,  0.0000)
  42 Cu     2.190306    4.437742   23.832438    ( 0.0000,  0.0000,  0.0000)
  43 Cu     5.528757    4.437708   23.833567    ( 0.0000,  0.0000,  0.0000)
  44 Cu     7.720538    4.457455   17.398590    ( 0.0000,  0.0000,  0.0000)

Unit cell:
           periodic     x           y           z      points  spacing
  1. axis:    yes    7.719485    0.000000    0.000000    32     0.2089
  2. axis:    yes    3.859742    6.685270    0.000000    32     0.2089
  3. axis:    no     0.000000    0.000000   38.403911   192     0.2000

  Lengths:   7.719485   7.719485  38.403911
  Angles:   90.000000  90.000000  60.000000

Effective grid spacing dv^(1/3) = 0.2160

                     log10-error:    total        iterations:
           time      wfs    density  energy       fermi  poisson
iter:   1  21:33:22                -111.747155    3      1      
iter:   2  21:33:27         -2.49  -119.915621    35     1      
iter:   3  21:33:31         -1.67  -112.088304    35     1      
iter:   4  21:33:36         -2.52  -112.426368    3      1      
iter:   5  21:33:40         -2.44  -112.732230    3      1      
iter:   6  21:33:45         -2.44  -112.425413    3      1      
iter:   7  21:33:49         -2.55  -114.820703    33     1      
iter:   8  21:33:54         -2.56  -117.767233    3      1      
iter:   9  21:33:58         -2.14  -117.375987    35     1      
iter:  10  21:34:03         -2.26  -115.666813    34     1      
iter:  11  21:34:07         -2.30  -115.411940    35     1      
iter:  12  21:34:12         -1.98  -112.146020    36     1      
iter:  13  21:34:16         -2.66  -119.086651    32     1      
iter:  14  21:34:20         -1.67  -113.470211    35     1      
iter:  15  21:34:25         -1.88  -112.157883    3      1      
iter:  16  21:34:29         -2.46  -111.899797    4      1      
iter:  17  21:34:34         -2.86  -111.812293    3      1      
iter:  18  21:34:38         -3.14  -111.816077    2      1      
iter:  19  21:34:43         -3.13  -111.810240    2      1      
iter:  20  21:34:47         -3.12  -111.468551    3      1      
iter:  21  21:34:52         -3.04  -111.402341    4      1      
iter:  22  21:34:56         -2.67  -111.584837    4      1      
iter:  23  21:35:01         -3.25  -111.534743    3      1      
iter:  24  21:35:05         -3.31  -111.394348    4      1      
iter:  25  21:35:10         -3.54  -111.393336    3      1      
iter:  26  21:35:14         -3.63  -111.382790    3      1      
iter:  27  21:35:19         -3.46  -111.498447    3      1      
iter:  28  21:35:23         -3.28  -111.493270    2      1      
iter:  29  21:35:28         -3.27  -111.424028    3      1      
iter:  30  21:35:32         -3.51  -111.432034    3      1      
iter:  31  21:35:37         -3.36  -111.439903    3      1      
iter:  32  21:35:41         -3.61  -111.445866    2      1      
iter:  33  21:35:46         -3.56  -111.404841    3      1      
iter:  34  21:35:50         -3.79  -111.451644    3      1      
iter:  35  21:35:55         -3.53  -111.428564    3      1      
iter:  36  21:35:59         -3.59  -111.438795    3      1      
iter:  37  21:36:04         -3.56  -111.425156    3      1      
iter:  38  21:36:08         -3.71  -111.418945    3      1      
iter:  39  21:36:13         -3.78  -111.412169    3      1      
iter:  40  21:36:17         -4.12  -111.406021    3      1      

Converged after 40 iterations.

Dipole moment: (34.539025, 19.941118, -0.025088) |e|*Ang

Energy contributions relative to reference atoms: (reference = -2025965.332850)

Kinetic:       -455.311703
Potential:     +389.061952
External:        +0.000000
XC:             -47.520880
Entropy (-ST):   -0.712110
Local:           +2.720664
--------------------------
Free energy:   -111.762076
Extrapolated:  -111.406021

Dipole-layer corrected work functions: 4.325440, 4.413410 eV

Fermi level: -4.36943

Showing only first 2 kpts
 Kpt  Band  Eigenvalues  Occupancy
  0   245     -4.74716    0.21725
  0   246     -4.74662    0.21722
  0   247     -4.55775    0.19289
  0   248     -4.50073    0.17511

  1   245     -4.59472    0.40218
  1   246     -4.45457    0.31150
  1   247     -4.42995    0.28749
  1   248     -4.27225    0.12201


No gap

Forces in eV/Ang:
  0 Cu    0.03098    2.79843   -2.65746
  1 Cu    6.33166    3.65558   -0.74042
  2 Cu   -6.38023    3.68965   -0.73628
  3 Cu    0.18638   -0.11203    1.55208
  4 Cu    0.00522   -7.37026   -0.73628
  5 Cu   -0.19154   -0.11058    1.55342
  6 Cu   -2.42061   -1.39754   -2.65966
  7 Cu    2.43900   -1.37239   -2.65746
  8 Cu   -0.00383    0.21742    1.55208
  9 Cu    0.00031    0.00018   -0.72330
 10 Cu   -2.56719   -0.24343   -0.82162
 11 Cu    2.56503   -0.23678   -0.81838
 12 Cu   -1.49441   -2.10153   -0.82162
 13 Cu   -0.00497   -0.00287    0.16172
 14 Cu    1.49865   -2.09469   -0.81265
 15 Cu    1.07745    2.33977   -0.81838
 16 Cu   -1.06473    2.34522   -0.81265
 17 Cu    0.00380    0.00219    0.07364
 18 Cu   -0.19863   -0.11468   -1.53903
 19 Cu    0.00470    2.17395    2.95397
 20 Cu    0.19713   -0.11294   -1.54077
 21 Cu    1.88504   -1.08291    2.95397
 22 Cu   -1.88508   -1.08835    2.96160
 23 Cu   -0.00451   -1.26693    1.30991
 24 Cu    0.00076    0.22719   -1.54077
 25 Cu   -1.09945    0.62956    1.30991
 26 Cu    1.08859    0.62850    1.30211
 27 Cu    0.00023   -4.06661    1.24422
 28 Cu   -2.58851   -1.49448   -1.11046
 29 Cu    2.58945   -1.48959   -1.11008
 30 Cu    1.38579   -0.78589   -0.34562
 31 Cu    0.00470    2.98733   -1.11008
 32 Cu   -1.38015   -0.79683   -0.34428
 33 Cu    3.51264    2.02802    1.24791
 34 Cu   -3.52167    2.03350    1.24422
 35 Cu    0.01230    1.59308   -0.34562
 36 Cu   -0.00008   -0.00005   -0.58008
 37 Cu   -1.17104    0.47294    0.17360
 38 Cu    1.17079    0.47033    0.17323
 39 Cu   -0.17594   -1.25063    0.17360
 40 Cu    0.00075    0.00043    4.29817
 41 Cu    0.17899   -1.24394    0.17103
 42 Cu    0.99271    0.77876    0.17323
 43 Cu   -0.98779    0.77698    0.17103
 44 Cu   -0.00803   -0.00464   -1.50569